LAMMPS data file. CGCMM style. atom_style full generated by VMD/TopoTools v1.5 on Sun Mar 06 11:32:13 -0800 2016
 6393 atoms
 3422 bonds
 1711 angles
 0 dihedrals
 0 impropers
 8 atom types
 1 bond types
 1 angle types
 0 dihedral types
 0 improper types
 -1.828024 30.072576  xlo xhi
 -0.599998 33.213997  ylo yhi
 -60.599998 30.599998  zlo zhi

# Pair Coeffs
#
# 1  C
# 2  Cl
# 3  H
# 4  O
# 5  PIS
# 6  Na
# 7  zC
# 8  zH

# Bond Coeffs
#
# 1  H-O

# Angle Coeffs
#
# 1  H-O-H

 Masses

 1 12.010700 # C
 2 35.452999 # Cl
 3 1.007940 # H
 4 15.999400 # O
 5 12.010700 # PIS
 6 22.989771 # Na
 7 12.010700 # zC
 8 1.007940 # zH

 Atoms

1 1 4 0.000000 4.158000 16.896000 14.472000 # O
2 1 3 0.000000 5.055000 17.179001 14.216000 # H
3 1 3 0.000000 4.309000 16.032000 14.890000 # H
4 1 4 0.000000 2.758000 16.518000 3.710000 # O
5 1 3 0.000000 2.753000 15.588000 3.596000 # H
6 1 3 0.000000 3.500000 16.780001 3.181000 # H
7 1 4 0.000000 15.098000 14.901000 6.977000 # O
8 1 3 0.000000 15.042000 14.472000 6.126000 # H
9 1 3 0.000000 15.777000 15.654000 6.845000 # H
10 1 4 0.000000 1.722000 9.044000 12.029000 # O
11 1 3 0.000000 1.082000 8.490000 12.398000 # H
12 1 3 0.000000 1.136000 9.445000 11.362000 # H
13 1 4 0.000000 9.646000 9.109000 7.386000 # O
14 1 3 0.000000 9.970000 9.071000 8.332000 # H
15 1 3 0.000000 8.720000 9.470000 7.475000 # H
16 1 4 0.000000 11.861000 29.860001 11.487000 # O
17 1 3 0.000000 11.550000 29.996000 12.375000 # H
18 1 3 0.000000 12.736000 29.537001 11.612000 # H
19 1 4 0.000000 0.633000 6.881000 4.343000 # O
20 1 3 0.000000 0.915000 5.939000 4.381000 # H
21 1 3 0.000000 -0.250000 6.799000 3.883000 # H
22 1 4 0.000000 3.793000 20.802999 13.639000 # O
23 1 3 0.000000 4.438000 20.982000 14.363000 # H
24 1 3 0.000000 4.356000 21.114000 12.856000 # H
25 1 4 0.000000 13.994000 21.055000 15.231000 # O
26 1 3 0.000000 13.194000 21.009001 15.692000 # H
27 1 3 0.000000 13.645000 21.257000 14.318000 # H
28 1 4 0.000000 4.580000 24.118000 15.359000 # O
29 1 3 0.000000 3.812000 23.822001 14.945000 # H
30 1 3 0.000000 5.009000 24.535999 14.608000 # H
31 1 4 0.000000 9.398000 7.804000 4.804000 # O
32 1 3 0.000000 9.733000 8.601000 4.394000 # H
33 1 3 0.000000 9.220000 8.089000 5.708000 # H
34 1 4 0.000000 7.541000 25.884001 14.611000 # O
35 1 3 0.000000 8.095000 25.742001 15.415000 # H
36 1 3 0.000000 7.777000 26.795000 14.327000 # H
37 1 4 0.000000 21.544001 6.442000 5.878000 # O
38 1 3 0.000000 20.677000 6.045000 6.230000 # H
39 1 3 0.000000 21.923000 5.859000 5.258000 # H
40 1 4 0.000000 9.898000 5.565000 3.418000 # O
41 1 3 0.000000 10.110000 4.969000 4.154000 # H
42 1 3 0.000000 9.629000 6.412000 3.893000 # H
43 1 4 0.000000 15.442000 28.289000 4.581000 # O
44 1 3 0.000000 15.826000 27.430000 4.899000 # H
45 1 3 0.000000 14.505000 28.056000 4.488000 # H
46 1 4 0.000000 -0.226000 25.284000 7.923000 # O
47 1 3 0.000000 -0.449000 26.264999 7.905000 # H
48 1 3 0.000000 0.767000 25.363001 7.845000 # H
49 1 4 0.000000 3.271000 17.974001 9.569000 # O
50 1 3 0.000000 2.275000 18.003000 9.722000 # H
51 1 3 0.000000 3.505000 18.955000 9.324000 # H
52 1 4 0.000000 7.864000 13.177000 7.721000 # O
53 1 3 0.000000 7.091000 12.678000 7.843000 # H
54 1 3 0.000000 8.314000 12.757000 6.936000 # H
55 1 4 0.000000 1.146000 18.667999 4.612000 # O
56 1 3 0.000000 1.604000 17.827999 4.603000 # H
57 1 3 0.000000 1.903000 19.320000 4.681000 # H
58 1 4 0.000000 -0.463000 29.452000 3.983000 # O
59 1 3 0.000000 0.435000 29.761999 4.136000 # H
60 1 3 0.000000 -0.442000 28.535000 4.188000 # H
61 1 4 0.000000 14.386000 6.769000 4.901000 # O
62 1 3 0.000000 15.196000 7.058000 4.528000 # H
63 1 3 0.000000 13.780000 6.900000 4.071000 # H
64 1 4 0.000000 8.907000 13.076000 12.591000 # O
65 1 3 0.000000 8.681000 12.298000 12.034000 # H
66 1 3 0.000000 8.444000 12.966000 13.418000 # H
67 1 4 0.000000 12.863000 2.119000 5.392000 # O
68 1 3 0.000000 13.170000 2.881000 5.822000 # H
69 1 3 0.000000 12.184000 1.777000 5.978000 # H
70 1 4 0.000000 7.795000 10.781000 11.227000 # O
71 1 3 0.000000 7.155000 10.953000 10.548000 # H
72 1 3 0.000000 7.361000 10.261000 11.934000 # H
73 1 4 0.000000 8.050000 12.167000 15.134000 # O
74 1 3 0.000000 7.200000 11.761000 15.393000 # H
75 1 3 0.000000 8.484000 12.394000 15.960000 # H
76 1 4 0.000000 9.254000 0.840000 4.453000 # O
77 1 3 0.000000 9.339000 1.159000 5.416000 # H
78 1 3 0.000000 8.715000 1.523000 4.067000 # H
79 1 4 0.000000 3.590000 8.325000 10.177000 # O
80 1 3 0.000000 4.377000 8.119000 10.714000 # H
81 1 3 0.000000 2.974000 8.658000 10.822000 # H
82 1 4 0.000000 2.375000 4.887000 12.215000 # O
83 1 3 0.000000 2.081000 5.472000 11.497000 # H
84 1 3 0.000000 2.789000 4.173000 11.727000 # H
85 1 4 0.000000 2.091000 10.525000 15.558000 # O
86 1 3 0.000000 2.570000 11.100000 14.912000 # H
87 1 3 0.000000 2.412000 9.630000 15.362000 # H
88 1 4 0.000000 5.354000 22.471001 4.719000 # O
89 1 3 0.000000 4.522000 22.235001 4.247000 # H
90 1 3 0.000000 5.831000 21.672001 4.592000 # H
91 1 4 0.000000 19.584999 13.816000 13.466000 # O
92 1 3 0.000000 19.711000 14.159000 12.618000 # H
93 1 3 0.000000 18.591000 14.016000 13.650000 # H
94 1 4 0.000000 7.848000 28.636999 7.979000 # O
95 1 3 0.000000 8.199000 27.777000 7.758000 # H
96 1 3 0.000000 7.762000 28.598000 8.933000 # H
97 1 4 0.000000 4.430000 13.297000 6.989000 # O
98 1 3 0.000000 4.645000 13.219000 6.012000 # H
99 1 3 0.000000 3.871000 14.094000 7.057000 # H
100 1 4 0.000000 4.132000 13.944000 10.354000 # O
101 1 3 0.000000 5.020000 13.622000 10.607000 # H
102 1 3 0.000000 3.980000 14.693000 10.928000 # H
103 1 4 0.000000 0.650000 22.142000 3.435000 # O
104 1 3 0.000000 0.244000 21.480000 3.992000 # H
105 1 3 0.000000 0.470000 23.009001 3.893000 # H
106 1 4 0.000000 8.602000 21.747000 5.400000 # O
107 1 3 0.000000 8.573000 22.671000 5.043000 # H
108 1 3 0.000000 8.259000 21.153999 4.712000 # H
109 1 4 0.000000 1.316000 10.771000 5.024000 # O
110 1 3 0.000000 1.094000 10.953000 5.953000 # H
111 1 3 0.000000 1.919000 9.991000 5.017000 # H
112 1 4 0.000000 -0.205000 23.868000 5.288000 # O
113 1 3 0.000000 0.608000 23.516001 5.740000 # H
114 1 3 0.000000 -0.775000 24.177999 6.040000 # H
115 1 4 0.000000 1.055000 28.532000 9.726000 # O
116 1 3 0.000000 0.530000 28.714001 10.515000 # H
117 1 3 0.000000 0.468000 27.937000 9.211000 # H
118 1 4 0.000000 12.192000 24.694000 15.492000 # O
119 1 3 0.000000 11.863000 25.583000 15.687000 # H
120 1 3 0.000000 12.028000 24.118000 16.253000 # H
121 1 4 0.000000 -0.033000 28.221001 12.415000 # O
122 1 3 0.000000 -1.015000 28.181000 12.443000 # H
123 1 3 0.000000 0.270000 27.319000 12.663000 # H
124 1 4 0.000000 1.682000 6.385000 9.940000 # O
125 1 3 0.000000 1.439000 6.436000 8.961000 # H
126 1 3 0.000000 2.382000 7.055000 9.980000 # H
127 1 4 0.000000 15.164000 22.603001 6.182000 # O
128 1 3 0.000000 15.335000 23.080999 7.022000 # H
129 1 3 0.000000 15.399000 23.264999 5.486000 # H
130 1 4 0.000000 12.512000 22.420000 5.148000 # O
131 1 3 0.000000 11.937000 22.674999 5.862000 # H
132 1 3 0.000000 13.400000 22.604000 5.474000 # H
133 1 4 0.000000 7.153000 23.665001 10.037000 # O
134 1 3 0.000000 7.979000 24.136999 10.103000 # H
135 1 3 0.000000 6.489000 24.316999 9.712000 # H
136 1 4 0.000000 9.901000 14.950000 8.118000 # O
137 1 3 0.000000 9.022000 14.741000 7.808000 # H
138 1 3 0.000000 10.373000 14.079000 8.117000 # H
139 1 4 0.000000 -0.281000 4.669000 12.979000 # O
140 1 3 0.000000 -0.602000 3.768000 12.739000 # H
141 1 3 0.000000 0.477000 4.785000 12.390000 # H
142 1 4 0.000000 25.868999 12.294000 3.079000 # O
143 1 3 0.000000 25.486000 11.480000 2.704000 # H
144 1 3 0.000000 26.847000 12.127000 2.953000 # H
145 1 4 0.000000 10.735000 19.813999 12.358000 # O
146 1 3 0.000000 11.251000 20.605000 12.266000 # H
147 1 3 0.000000 11.407000 19.105000 12.301000 # H
148 1 4 0.000000 5.999000 2.424000 15.811000 # O
149 1 3 0.000000 5.157000 3.001000 15.935000 # H
150 1 3 0.000000 5.664000 1.603000 16.142000 # H
151 1 4 0.000000 16.784000 5.971000 8.276000 # O
152 1 3 0.000000 16.191999 6.516000 7.780000 # H
153 1 3 0.000000 16.523001 5.069000 8.069000 # H
154 1 4 0.000000 3.000000 7.899000 15.176000 # O
155 1 3 0.000000 3.549000 7.393000 14.538000 # H
156 1 3 0.000000 2.143000 7.520000 14.944000 # H
157 1 4 0.000000 11.465000 9.651000 4.615000 # O
158 1 3 0.000000 11.880000 10.040000 5.387000 # H
159 1 3 0.000000 11.954000 8.841000 4.439000 # H
160 1 4 0.000000 10.149000 9.810000 10.328000 # O
161 1 3 0.000000 9.415000 10.372000 10.453000 # H
162 1 3 0.000000 9.838000 8.988000 10.698000 # H
163 1 4 0.000000 17.413000 16.334000 6.240000 # O
164 1 3 0.000000 17.582001 16.688000 5.368000 # H
165 1 3 0.000000 18.084999 15.607000 6.361000 # H
166 1 4 0.000000 14.402000 3.474000 9.807000 # O
167 1 3 0.000000 14.430000 2.941000 10.557000 # H
168 1 3 0.000000 14.905000 2.940000 9.170000 # H
169 1 4 0.000000 12.106000 4.735000 8.959000 # O
170 1 3 0.000000 11.406000 4.132000 9.338000 # H
171 1 3 0.000000 12.931000 4.362000 9.365000 # H
172 1 4 0.000000 14.980000 17.997000 13.810000 # O
173 1 3 0.000000 15.667000 17.902000 13.084000 # H
174 1 3 0.000000 14.158000 17.721001 13.342000 # H
175 1 4 0.000000 6.802000 19.951000 4.395000 # O
176 1 3 0.000000 6.229000 20.070000 3.647000 # H
177 1 3 0.000000 7.301000 19.122999 4.285000 # H
178 1 4 0.000000 12.635000 26.632000 8.929000 # O
179 1 3 0.000000 12.823000 26.461000 9.882000 # H
180 1 3 0.000000 12.327000 27.575001 8.932000 # H
181 1 4 0.000000 13.999000 11.449000 12.206000 # O
182 1 3 0.000000 14.608000 11.153000 11.504000 # H
183 1 3 0.000000 13.901000 12.394000 11.945000 # H
184 1 4 0.000000 12.884000 26.662001 4.686000 # O
185 1 3 0.000000 12.639000 27.587999 4.939000 # H
186 1 3 0.000000 12.460000 26.115999 5.400000 # H
187 1 4 0.000000 13.575000 18.309999 5.613000 # O
188 1 3 0.000000 13.247000 17.855000 6.363000 # H
189 1 3 0.000000 12.814000 18.806000 5.278000 # H
190 1 4 0.000000 3.725000 20.339001 7.875000 # O
191 1 3 0.000000 3.741000 21.253000 8.246000 # H
192 1 3 0.000000 4.635000 20.231001 7.601000 # H
193 1 4 0.000000 1.341000 19.820000 13.238000 # O
194 1 3 0.000000 1.023000 19.625000 14.101000 # H
195 1 3 0.000000 2.319000 19.917000 13.323000 # H
196 1 4 0.000000 14.130000 15.418000 3.853000 # O
197 1 3 0.000000 14.258000 16.323000 3.560000 # H
198 1 3 0.000000 13.147000 15.419000 3.987000 # H
199 1 4 0.000000 6.901000 9.801000 6.722000 # O
200 1 3 0.000000 6.336000 10.540000 6.312000 # H
201 1 3 0.000000 6.290000 9.211000 7.220000 # H
202 1 4 0.000000 9.181000 27.135000 4.373000 # O
203 1 3 0.000000 8.369000 27.488001 3.920000 # H
204 1 3 0.000000 9.495000 27.872000 5.024000 # H
205 1 4 0.000000 7.429000 31.211000 3.260000 # O
206 1 3 0.000000 7.216000 31.864000 3.914000 # H
207 1 3 0.000000 6.781000 30.504999 3.467000 # H
208 1 4 0.000000 5.221000 27.934999 16.068001 # O
209 1 3 0.000000 5.435000 28.558001 15.398000 # H
210 1 3 0.000000 6.062000 27.443001 16.247999 # H
211 1 4 0.000000 12.727000 25.993999 11.920000 # O
212 1 3 0.000000 11.798000 25.868999 12.167000 # H
213 1 3 0.000000 13.120000 25.951000 12.774000 # H
214 1 4 0.000000 1.492000 30.870001 8.657000 # O
215 1 3 0.000000 1.644000 29.951000 8.837000 # H
216 1 3 0.000000 1.388000 31.350000 9.545000 # H
217 1 4 0.000000 18.804001 29.992001 7.920000 # O
218 1 3 0.000000 19.245001 30.562000 8.593000 # H
219 1 3 0.000000 18.339001 29.382999 8.449000 # H
220 1 4 0.000000 2.231000 29.955000 12.878000 # O
221 1 3 0.000000 2.349000 30.514000 12.123000 # H
222 1 3 0.000000 1.470000 29.424000 12.543000 # H
223 1 4 0.000000 5.675000 26.792999 7.248000 # O
224 1 3 0.000000 6.379000 27.407000 7.161000 # H
225 1 3 0.000000 5.688000 26.268000 6.413000 # H
226 1 4 0.000000 20.343000 18.084999 8.275000 # O
227 1 3 0.000000 19.702999 17.389999 8.601000 # H
228 1 3 0.000000 21.129000 17.971001 8.779000 # H
229 1 4 0.000000 20.024000 14.690000 6.692000 # O
230 1 3 0.000000 19.636000 14.225000 7.409000 # H
231 1 3 0.000000 20.763000 15.206000 7.147000 # H
232 1 4 0.000000 4.313000 30.158001 14.583000 # O
233 1 3 0.000000 3.483000 30.006001 14.133000 # H
234 1 3 0.000000 4.729000 30.840000 14.016000 # H
235 1 4 0.000000 2.292000 1.639000 6.093000 # O
236 1 3 0.000000 1.990000 1.463000 5.195000 # H
237 1 3 0.000000 3.190000 1.937000 5.933000 # H
238 1 4 0.000000 15.068000 8.605000 13.028000 # O
239 1 3 0.000000 15.057000 9.590000 13.115000 # H
240 1 3 0.000000 15.049000 8.548000 12.021000 # H
241 1 4 0.000000 7.350000 23.035999 16.474001 # O
242 1 3 0.000000 8.099000 23.285000 15.878000 # H
243 1 3 0.000000 6.778000 23.851999 16.511999 # H
244 1 4 0.000000 17.451000 3.289000 3.778000 # O
245 1 3 0.000000 16.507999 3.408000 3.974000 # H
246 1 3 0.000000 17.573999 2.340000 3.597000 # H
247 1 4 0.000000 14.501000 6.182000 10.919000 # O
248 1 3 0.000000 15.370000 5.832000 11.212000 # H
249 1 3 0.000000 14.195000 5.533000 10.267000 # H
250 1 4 0.000000 3.511000 2.805000 10.695000 # O
251 1 3 0.000000 4.432000 2.902000 10.523000 # H
252 1 3 0.000000 3.406000 1.816000 10.763000 # H
253 1 4 0.000000 19.000000 7.280000 11.422000 # O
254 1 3 0.000000 19.646999 7.915000 11.482000 # H
255 1 3 0.000000 18.357000 7.773000 10.927000 # H
256 1 4 0.000000 7.855000 21.781000 8.160000 # O
257 1 3 0.000000 7.677000 22.431999 8.846000 # H
258 1 3 0.000000 8.329000 22.208000 7.477000 # H
259 1 4 0.000000 18.371000 12.564000 4.380000 # O
260 1 3 0.000000 18.687000 11.699000 3.998000 # H
261 1 3 0.000000 18.063000 12.259000 5.246000 # H
262 1 4 0.000000 23.136999 7.019000 8.175000 # O
263 1 3 0.000000 22.839001 6.810000 7.273000 # H
264 1 3 0.000000 22.334000 7.377000 8.651000 # H
265 1 4 0.000000 11.765000 13.564000 14.568000 # O
266 1 3 0.000000 11.759000 13.748000 13.623000 # H
267 1 3 0.000000 10.967000 13.994000 14.799000 # H
268 1 4 0.000000 5.639000 7.747000 12.046000 # O
269 1 3 0.000000 5.075000 7.175000 12.696000 # H
270 1 3 0.000000 6.530000 7.492000 12.446000 # H
271 1 4 0.000000 9.101000 17.684999 8.950000 # O
272 1 3 0.000000 8.203000 17.667000 9.320000 # H
273 1 3 0.000000 9.080000 16.902000 8.385000 # H
274 1 4 0.000000 21.384001 7.806000 15.065000 # O
275 1 3 0.000000 20.823999 8.180000 15.788000 # H
276 1 3 0.000000 20.930000 6.969000 14.893000 # H
277 1 4 0.000000 3.626000 5.917000 7.423000 # O
278 1 3 0.000000 4.031000 5.326000 6.795000 # H
279 1 3 0.000000 4.381000 5.985000 8.034000 # H
280 1 4 0.000000 11.308000 15.105000 11.750000 # O
281 1 3 0.000000 10.821000 15.788000 11.283000 # H
282 1 3 0.000000 10.540000 14.575000 12.170000 # H
283 1 4 0.000000 4.460000 14.455000 15.612000 # O
284 1 3 0.000000 5.251000 14.326000 16.108999 # H
285 1 3 0.000000 3.836000 14.191000 16.278000 # H
286 1 4 0.000000 2.658000 8.553000 5.801000 # O
287 1 3 0.000000 3.466000 8.130000 5.484000 # H
288 1 3 0.000000 2.013000 7.927000 5.597000 # H
289 1 4 0.000000 14.399000 14.099000 15.818000 # O
290 1 3 0.000000 14.570000 14.903000 16.315001 # H
291 1 3 0.000000 13.541000 14.232000 15.394000 # H
292 1 4 0.000000 12.235000 23.712999 9.726000 # O
293 1 3 0.000000 13.055000 24.100000 10.089000 # H
294 1 3 0.000000 12.641000 23.003000 9.139000 # H
295 1 4 0.000000 3.261000 25.875000 3.875000 # O
296 1 3 0.000000 3.986000 25.497000 4.309000 # H
297 1 3 0.000000 2.600000 25.226999 3.913000 # H
298 1 4 0.000000 9.002000 11.641000 5.834000 # O
299 1 3 0.000000 8.246000 11.027000 5.822000 # H
300 1 3 0.000000 9.505000 11.562000 5.061000 # H
301 1 4 0.000000 9.522000 9.744000 13.715000 # O
302 1 3 0.000000 9.027000 10.543000 13.796000 # H
303 1 3 0.000000 10.432000 10.046000 13.737000 # H
304 1 4 0.000000 16.167999 18.238001 16.177000 # O
305 1 3 0.000000 16.464001 17.285000 16.150000 # H
306 1 3 0.000000 15.840000 18.282000 15.255000 # H
307 1 4 0.000000 12.040000 3.114000 12.549000 # O
308 1 3 0.000000 11.775000 2.673000 11.695000 # H
309 1 3 0.000000 12.982000 3.049000 12.512000 # H
310 1 4 0.000000 4.422000 9.267000 7.737000 # O
311 1 3 0.000000 3.694000 9.040000 7.111000 # H
312 1 3 0.000000 3.911000 8.970000 8.517000 # H
313 1 4 0.000000 27.929001 21.922001 7.903000 # O
314 1 3 0.000000 27.107000 21.603001 7.463000 # H
315 1 3 0.000000 27.632999 22.693001 8.475000 # H
316 1 4 0.000000 19.226999 26.183001 5.529000 # O
317 1 3 0.000000 19.444000 26.611000 6.354000 # H
318 1 3 0.000000 18.840000 25.298000 5.726000 # H
319 1 4 0.000000 2.220000 23.076000 6.101000 # O
320 1 3 0.000000 1.634000 22.534000 6.648000 # H
321 1 3 0.000000 3.078000 22.610001 6.181000 # H
322 1 4 0.000000 16.877001 28.343000 8.848000 # O
323 1 3 0.000000 16.146000 28.705999 8.362000 # H
324 1 3 0.000000 16.445999 27.672001 9.380000 # H
325 1 4 0.000000 7.915000 19.806999 11.793000 # O
326 1 3 0.000000 8.862000 19.865999 11.574000 # H
327 1 3 0.000000 7.523000 19.402000 10.986000 # H
328 1 4 0.000000 20.864000 9.690000 5.354000 # O
329 1 3 0.000000 21.634001 9.165000 5.407000 # H
330 1 3 0.000000 20.250999 9.110000 4.958000 # H
331 1 4 0.000000 5.873000 21.757000 11.726000 # O
332 1 3 0.000000 6.382000 20.944000 11.784000 # H
333 1 3 0.000000 6.446000 22.277000 11.159000 # H
334 1 4 0.000000 5.829000 11.338000 9.229000 # O
335 1 3 0.000000 5.079000 11.950000 9.200000 # H
336 1 3 0.000000 5.452000 10.587000 8.753000 # H
337 1 4 0.000000 9.281000 21.700001 13.881000 # O
338 1 3 0.000000 9.986000 21.128000 13.585000 # H
339 1 3 0.000000 8.567000 21.160999 13.583000 # H
340 1 4 0.000000 15.661000 26.429001 10.689000 # O
341 1 3 0.000000 16.164000 25.990999 11.400000 # H
342 1 3 0.000000 14.974000 26.874001 11.252000 # H
343 1 4 0.000000 11.343000 29.853001 14.290000 # O
344 1 3 0.000000 12.282000 30.091000 14.385000 # H
345 1 3 0.000000 10.950000 30.580999 14.807000 # H
346 1 4 0.000000 11.085000 1.121000 7.342000 # O
347 1 3 0.000000 11.791000 0.835000 7.962000 # H
348 1 3 0.000000 10.786000 2.096000 7.623000 # H
349 1 4 0.000000 1.393000 3.975000 7.458000 # O
350 1 3 0.000000 1.656000 3.134000 7.052000 # H
351 1 3 0.000000 2.191000 4.540000 7.448000 # H
352 1 4 0.000000 18.791000 1.385000 8.821000 # O
353 1 3 0.000000 19.326000 1.843000 8.152000 # H
354 1 3 0.000000 18.739000 0.432000 8.499000 # H
355 1 4 0.000000 6.033000 25.172001 4.943000 # O
356 1 3 0.000000 6.957000 25.459999 4.837000 # H
357 1 3 0.000000 6.123000 24.202999 4.845000 # H
358 1 4 0.000000 4.113000 1.811000 2.899000 # O
359 1 3 0.000000 3.669000 1.310000 3.634000 # H
360 1 3 0.000000 5.003000 1.502000 2.986000 # H
361 1 4 0.000000 16.903000 14.572000 13.994000 # O
362 1 3 0.000000 15.982000 14.624000 13.687000 # H
363 1 3 0.000000 16.898001 15.156000 14.799000 # H
364 1 4 0.000000 1.481000 3.705000 15.310000 # O
365 1 3 0.000000 1.086000 4.338000 14.715000 # H
366 1 3 0.000000 1.687000 2.912000 14.783000 # H
367 1 4 0.000000 4.433000 6.954000 4.343000 # O
368 1 3 0.000000 5.384000 6.827000 4.418000 # H
369 1 3 0.000000 4.181000 6.156000 3.834000 # H
370 1 4 0.000000 21.495001 2.358000 3.898000 # O
371 1 3 0.000000 21.403999 2.272000 2.946000 # H
372 1 3 0.000000 21.090000 1.521000 4.261000 # H
373 1 4 0.000000 10.752000 13.709000 3.383000 # O
374 1 3 0.000000 11.283000 13.622000 4.194000 # H
375 1 3 0.000000 11.351000 14.016000 2.700000 # H
376 1 4 0.000000 12.382000 13.996000 5.606000 # O
377 1 3 0.000000 11.832000 13.542000 6.352000 # H
378 1 3 0.000000 13.350000 13.824000 5.886000 # H
379 1 4 0.000000 6.286000 0.428000 11.552000 # O
380 1 3 0.000000 6.419000 0.396000 10.557000 # H
381 1 3 0.000000 7.191000 0.536000 11.826000 # H
382 1 4 0.000000 8.235000 28.474001 14.823000 # O
383 1 3 0.000000 7.918000 29.086000 15.448000 # H
384 1 3 0.000000 7.769000 28.732000 13.985000 # H
385 1 4 0.000000 12.352000 29.230000 5.210000 # O
386 1 3 0.000000 11.642000 29.333000 5.886000 # H
387 1 3 0.000000 12.166000 29.995001 4.583000 # H
388 1 4 0.000000 9.673000 25.021999 9.939000 # O
389 1 3 0.000000 10.597000 24.708000 10.016000 # H
390 1 3 0.000000 9.349000 24.917999 10.876000 # H
391 1 4 0.000000 19.818001 20.562000 7.141000 # O
392 1 3 0.000000 19.782000 21.046000 8.044000 # H
393 1 3 0.000000 19.812000 19.589001 7.335000 # H
394 1 4 0.000000 9.000000 24.228001 12.407000 # O
395 1 3 0.000000 9.047000 23.332001 12.824000 # H
396 1 3 0.000000 9.012000 24.827000 13.185000 # H
397 1 4 0.000000 -0.739000 10.738000 15.868000 # O
398 1 3 0.000000 -0.742000 11.137000 15.002000 # H
399 1 3 0.000000 0.234000 10.557000 16.069000 # H
400 1 4 0.000000 15.186000 8.047000 7.166000 # O
401 1 3 0.000000 14.226000 8.192000 7.561000 # H
402 1 3 0.000000 14.877000 7.592000 6.396000 # H
403 1 4 0.000000 11.412000 12.607000 7.770000 # O
404 1 3 0.000000 10.624000 12.087000 7.505000 # H
405 1 3 0.000000 11.865000 12.067000 8.377000 # H
406 1 4 0.000000 17.784000 29.540001 5.149000 # O
407 1 3 0.000000 17.855000 29.594000 6.077000 # H
408 1 3 0.000000 16.903000 29.059000 4.947000 # H
409 1 4 0.000000 5.940000 11.829000 4.753000 # O
410 1 3 0.000000 5.547000 11.096000 4.207000 # H
411 1 3 0.000000 6.055000 12.490000 3.990000 # H
412 1 4 0.000000 12.505000 10.750000 9.560000 # O
413 1 3 0.000000 11.580000 10.509000 9.890000 # H
414 1 3 0.000000 12.980000 11.140000 10.325000 # H
415 1 4 0.000000 11.840000 25.079000 6.726000 # O
416 1 3 0.000000 12.150000 25.590000 7.517000 # H
417 1 3 0.000000 12.161000 24.209000 6.903000 # H
418 1 4 0.000000 16.680000 20.969999 15.269000 # O
419 1 3 0.000000 15.676000 20.981001 15.180000 # H
420 1 3 0.000000 16.865999 20.148001 15.723000 # H
421 1 4 0.000000 23.936001 14.076000 5.269000 # O
422 1 3 0.000000 23.183001 13.399000 5.273000 # H
423 1 3 0.000000 24.129000 14.256000 4.310000 # H
424 1 4 0.000000 10.034000 29.474001 6.586000 # O
425 1 3 0.000000 9.205000 29.304001 7.072000 # H
426 1 3 0.000000 10.708000 29.211000 7.239000 # H
427 1 4 0.000000 22.166000 20.410999 12.813000 # O
428 1 3 0.000000 22.259001 20.062000 13.740000 # H
429 1 3 0.000000 22.875000 21.069000 12.673000 # H
430 1 4 0.000000 10.614000 19.230000 7.266000 # O
431 1 3 0.000000 9.724000 18.986000 7.609000 # H
432 1 3 0.000000 10.506000 19.347000 6.297000 # H
433 1 4 0.000000 12.522000 21.722000 11.965000 # O
434 1 3 0.000000 12.251000 21.944000 11.055000 # H
435 1 3 0.000000 12.831000 22.618999 12.314000 # H
436 1 4 0.000000 11.786000 18.106001 9.783000 # O
437 1 3 0.000000 12.351000 17.610001 9.088000 # H
438 1 3 0.000000 10.935000 18.194000 9.354000 # H
439 1 4 0.000000 16.966999 25.402000 12.823000 # O
440 1 3 0.000000 17.825001 25.747999 12.661000 # H
441 1 3 0.000000 17.129999 24.642000 13.474000 # H
442 1 4 0.000000 14.704000 29.040001 7.354000 # O
443 1 3 0.000000 13.764000 29.223000 7.212000 # H
444 1 3 0.000000 14.877000 28.410999 6.643000 # H
445 1 4 0.000000 14.961000 19.951000 7.262000 # O
446 1 3 0.000000 14.924000 20.832001 6.860000 # H
447 1 3 0.000000 14.529000 19.410000 6.588000 # H
448 1 4 0.000000 9.177000 30.863001 11.001000 # O
449 1 3 0.000000 9.201000 31.150000 11.948000 # H
450 1 3 0.000000 9.916000 30.250999 10.909000 # H
451 1 4 0.000000 5.357000 25.855000 9.883000 # O
452 1 3 0.000000 5.557000 26.039000 8.939000 # H
453 1 3 0.000000 4.697000 26.537001 10.130000 # H
454 1 4 0.000000 22.660000 23.402000 6.503000 # O
455 1 3 0.000000 22.375000 22.594000 5.951000 # H
456 1 3 0.000000 22.764999 24.066999 5.779000 # H
457 1 4 0.000000 21.663000 29.273001 8.550000 # O
458 1 3 0.000000 22.221001 28.837999 7.938000 # H
459 1 3 0.000000 21.666000 28.641001 9.319000 # H
460 1 4 0.000000 14.319000 30.370001 14.429000 # O
461 1 3 0.000000 14.707000 29.848000 13.699000 # H
462 1 3 0.000000 15.054000 30.598000 14.982000 # H
463 1 4 0.000000 9.935000 1.937000 14.190000 # O
464 1 3 0.000000 9.291000 2.440000 13.734000 # H
465 1 3 0.000000 10.681000 2.367000 13.610000 # H
466 1 4 0.000000 13.748000 5.139000 14.843000 # O
467 1 3 0.000000 13.608000 6.152000 14.652000 # H
468 1 3 0.000000 12.837000 4.912000 15.004000 # H
469 1 4 0.000000 6.501000 4.708000 3.796000 # O
470 1 3 0.000000 7.285000 4.782000 3.257000 # H
471 1 3 0.000000 5.755000 4.711000 3.168000 # H
472 1 4 0.000000 23.184000 1.914000 14.533000 # O
473 1 3 0.000000 22.554001 1.561000 15.199000 # H
474 1 3 0.000000 23.313000 1.199000 13.925000 # H
475 1 4 0.000000 10.172000 4.351000 5.871000 # O
476 1 3 0.000000 11.025000 4.560000 6.328000 # H
477 1 3 0.000000 9.544000 4.626000 6.538000 # H
478 1 4 0.000000 19.886000 18.488001 11.628000 # O
479 1 3 0.000000 20.691000 18.667999 12.219000 # H
480 1 3 0.000000 20.031000 19.075001 10.916000 # H
481 1 4 0.000000 3.856000 4.281000 16.113001 # O
482 1 3 0.000000 3.942000 4.946000 16.773001 # H
483 1 3 0.000000 2.904000 4.175000 15.993000 # H
484 1 4 0.000000 12.839000 4.824000 6.354000 # O
485 1 3 0.000000 13.039000 4.841000 7.304000 # H
486 1 3 0.000000 13.094000 5.694000 6.048000 # H
487 1 4 0.000000 16.393999 3.600000 6.602000 # O
488 1 3 0.000000 17.167000 3.634000 5.998000 # H
489 1 3 0.000000 16.368999 2.625000 6.807000 # H
490 1 4 0.000000 15.663000 18.115999 9.159000 # O
491 1 3 0.000000 15.378000 18.753000 8.492000 # H
492 1 3 0.000000 15.787000 18.726000 9.982000 # H
493 1 4 0.000000 17.165001 18.170000 12.150000 # O
494 1 3 0.000000 16.930000 19.111000 12.233000 # H
495 1 3 0.000000 18.122999 18.190001 12.047000 # H
496 1 4 0.000000 2.146000 11.359000 8.354000 # O
497 1 3 0.000000 2.876000 11.273000 7.752000 # H
498 1 3 0.000000 2.176000 12.304000 8.529000 # H
499 1 4 0.000000 23.007000 11.637000 13.342000 # O
500 1 3 0.000000 23.379000 12.547000 13.239000 # H
501 1 3 0.000000 22.455000 11.542000 12.552000 # H
502 1 4 0.000000 19.815001 15.203000 10.992000 # O
503 1 3 0.000000 20.587999 15.855000 10.924000 # H
504 1 3 0.000000 19.020000 15.719000 10.955000 # H
505 1 4 0.000000 2.600000 15.653000 12.084000 # O
506 1 3 0.000000 2.576000 16.568001 11.765000 # H
507 1 3 0.000000 2.238000 15.678000 12.992000 # H
508 1 4 0.000000 0.613000 18.464001 10.536000 # O
509 1 3 0.000000 -0.273000 18.690001 10.408000 # H
510 1 3 0.000000 0.953000 19.202999 11.065000 # H
511 1 4 0.000000 26.280001 10.841000 14.943000 # O
512 1 3 0.000000 26.301001 10.484000 14.000000 # H
513 1 3 0.000000 26.308001 11.797000 14.774000 # H
514 1 4 0.000000 13.241000 10.201000 6.769000 # O
515 1 3 0.000000 13.945000 10.728000 7.152000 # H
516 1 3 0.000000 12.662000 10.059000 7.492000 # H
517 1 4 0.000000 13.663000 14.017000 11.450000 # O
518 1 3 0.000000 14.134000 14.572000 10.785000 # H
519 1 3 0.000000 12.793000 14.450000 11.513000 # H
520 1 4 0.000000 27.280001 7.951000 13.601000 # O
521 1 3 0.000000 27.535999 7.025000 13.316000 # H
522 1 3 0.000000 27.097000 7.851000 14.540000 # H
523 1 4 0.000000 11.245000 5.624000 12.804000 # O
524 1 3 0.000000 11.356000 4.672000 12.610000 # H
525 1 3 0.000000 12.125000 5.914000 12.901000 # H
526 1 4 0.000000 9.261000 24.236000 4.693000 # O
527 1 3 0.000000 9.319000 25.142000 4.418000 # H
528 1 3 0.000000 10.161000 24.063999 4.955000 # H
529 1 4 0.000000 24.547001 16.959000 4.342000 # O
530 1 3 0.000000 24.416000 16.507000 5.220000 # H
531 1 3 0.000000 24.736000 16.162001 3.755000 # H
532 1 4 0.000000 26.089001 13.604000 9.525000 # O
533 1 3 0.000000 25.986000 13.542000 10.479000 # H
534 1 3 0.000000 26.865999 13.073000 9.337000 # H
535 1 4 0.000000 25.021999 18.952999 12.846000 # O
536 1 3 0.000000 24.872000 19.872999 12.765000 # H
537 1 3 0.000000 25.427000 18.716000 11.947000 # H
538 1 4 0.000000 12.074000 29.591999 8.714000 # O
539 1 3 0.000000 12.176000 30.436001 8.350000 # H
540 1 3 0.000000 12.245000 29.764999 9.661000 # H
541 1 4 0.000000 16.261999 19.492001 4.759000 # O
542 1 3 0.000000 16.542999 18.613001 4.472000 # H
543 1 3 0.000000 16.219999 19.445000 5.746000 # H
544 1 4 0.000000 17.738001 23.987000 6.384000 # O
545 1 3 0.000000 17.957001 23.207001 5.857000 # H
546 1 3 0.000000 17.408001 23.601999 7.182000 # H
547 1 4 0.000000 18.038000 16.667999 9.197000 # O
548 1 3 0.000000 17.271999 17.129999 9.589000 # H
549 1 3 0.000000 17.716000 16.492001 8.283000 # H
550 1 4 0.000000 2.089000 12.019000 12.470000 # O
551 1 3 0.000000 2.462000 12.696000 11.923000 # H
552 1 3 0.000000 2.909000 11.783000 12.939000 # H
553 1 4 0.000000 -0.479000 16.593000 12.766000 # O
554 1 3 0.000000 0.264000 16.521999 13.416000 # H
555 1 3 0.000000 -0.363000 17.483000 12.372000 # H
556 1 4 0.000000 20.375999 23.572001 15.823000 # O
557 1 3 0.000000 21.129000 24.032000 15.491000 # H
558 1 3 0.000000 20.674000 22.797001 16.336000 # H
559 1 4 0.000000 15.908000 26.239000 6.351000 # O
560 1 3 0.000000 15.524000 25.715000 7.016000 # H
561 1 3 0.000000 16.702999 25.724001 6.084000 # H
562 1 4 0.000000 16.319000 7.094000 15.110000 # O
563 1 3 0.000000 16.007000 7.481000 14.331000 # H
564 1 3 0.000000 16.660000 6.247000 14.786000 # H
565 1 4 0.000000 14.783000 15.489000 9.600000 # O
566 1 3 0.000000 14.586000 15.169000 8.709000 # H
567 1 3 0.000000 14.996000 16.398001 9.387000 # H
568 1 4 0.000000 6.266000 30.535999 6.832000 # O
569 1 3 0.000000 6.514000 31.261999 7.314000 # H
570 1 3 0.000000 7.092000 30.014000 6.815000 # H
571 1 4 0.000000 15.391000 31.579000 6.827000 # O
572 1 3 0.000000 15.475000 31.961000 7.684000 # H
573 1 3 0.000000 15.309000 30.624001 6.974000 # H
574 1 4 0.000000 17.299000 0.575000 13.858000 # O
575 1 3 0.000000 17.797001 0.341000 14.694000 # H
576 1 3 0.000000 17.375000 1.566000 13.780000 # H
577 1 4 0.000000 9.022000 5.805000 8.158000 # O
578 1 3 0.000000 9.127000 6.754000 7.956000 # H
579 1 3 0.000000 9.769000 5.589000 8.709000 # H
580 1 4 0.000000 6.853000 3.718000 8.100000 # O
581 1 3 0.000000 7.522000 4.425000 8.212000 # H
582 1 3 0.000000 6.042000 4.034000 8.569000 # H
583 1 4 0.000000 24.561001 5.470000 14.937000 # O
584 1 3 0.000000 24.787001 4.678000 14.518000 # H
585 1 3 0.000000 25.195999 5.634000 15.657000 # H
586 1 4 0.000000 25.134001 9.727000 12.456000 # O
587 1 3 0.000000 24.951000 8.833000 12.734000 # H
588 1 3 0.000000 24.266001 10.223000 12.682000 # H
589 1 4 0.000000 7.531000 3.715000 13.935000 # O
590 1 3 0.000000 7.407000 4.498000 14.555000 # H
591 1 3 0.000000 6.927000 3.099000 14.352000 # H
592 1 4 0.000000 28.745001 9.825000 12.164000 # O
593 1 3 0.000000 28.233999 9.454000 12.874000 # H