LAMMPS (7 Dec 2015)
  using 1 OpenMP thread(s) per MPI task
  orthogonal box = (-1.82802 -0.599998 -60.6) to (30.0726 33.214 30.6)
  3 by 4 by 8 MPI processor grid
  reading atoms ...
  6393 atoms
  scanning bonds ...
  2 = max bonds/atom
  scanning angles ...
  1 = max angles/atom
  reading bonds ...
  3422 bonds
  reading angles ...
  1711 angles
  2 = max # of 1-2 neighbors
  1 = max # of 1-3 neighbors
  1 = max # of 1-4 neighbors
  2 = max # of special neighbors
1212 atoms in group carbon
1711 atoms in group ox
3422 atoms in group hy
12 atoms in group na
12 atoms in group cl
12 atoms in group h_hydrogen
12 atoms in group c_hydrogen
24 atoms in group hydrogengroup
416 atoms in group piston1
416 atoms in group piston2
832 atoms in group bothpistons
404 atoms in group membrane1_atoms
404 atoms in group totalmembrane
2971 atoms in group not_hy
1 atoms in group fixedatoms
403 atoms in group membrane1_free
5133 atoms in group water
5157 atoms in group saltwater
1236 atoms in group notsaltwater
6392 atoms in group thermostat_target
  12 settings made for charge
  12 settings made for charge
  1711 settings made for charge
  3422 settings made for charge
  12 settings made for charge
  12 settings made for charge
WARNING: Temperature for thermo pressure is not for group all (../thermo.cpp:445)
WARNING: New thermo_style command, previous thermo_modify settings will be lost (../output.cpp:680)
PPPM initialization ...
  extracting TIP4P info from pair style
  G vector (1/distance) = 0.2032
  grid = 15 15 30
  stencil order = 5
  estimated absolute RMS force accuracy = 0.0275484
  estimated relative force accuracy = 8.29611e-05
  using double precision FFTs
  3d grid and FFT values/proc = 1200 90
WARNING: Using a manybody potential with bonds/angles/dihedrals and special_bond exclusions (../pair.cpp:220)
Neighbor list info ...
  4 neighbor list requests
  update every 1 steps, delay 10 steps, check yes
  max neighbors/atom: 2000, page size: 100000
  master list distance cutoff = 15.3092
  ghost atom cutoff = 15.3092
  binsize = 7.6546 -> bins = 5 5 12
Memory usage per processor = 7.07688 Mbytes
Step Temp E_pair E_mol TotEng Press 
       0            0    659716.19            0    659716.19    2074150.7 
Loop time of 1.14366e-05 on 96 procs for 0 steps with 6393 atoms

0.0% CPU use with 96 MPI tasks x no OpenMP threads

MPI task timing breakdown:
Section |  min time  |  avg time  |  max time  |%varavg| %total
---------------------------------------------------------------
Pair    | 0          | 0          | 0          |   0.0 |  0.00
Bond    | 0          | 0          | 0          |   0.0 |  0.00
Kspace  | 0          | 0          | 0          |   0.0 |  0.00
Neigh   | 0          | 0          | 0          |   0.0 |  0.00
Comm    | 0          | 0          | 0          |   0.0 |  0.00
Output  | 0          | 0          | 0          |   0.0 |  0.00
Modify  | 0          | 0          | 0          |   0.0 |  0.00
Other   |            | 1.144e-05  |            |       |100.00

Nlocal:    66.5938 ave 104 max 32 min
Histogram: 24 0 1 6 11 16 14 10 6 8
Nghost:    4389.48 ave 5928 max 2960 min
Histogram: 24 2 19 3 0 0 4 16 20 8
Neighs:    36905.1 ave 70569 max 4464 min
Histogram: 12 0 12 7 13 16 12 14 6 4
FullNghs:  73810.2 ave 139797 max 22370 min
Histogram: 24 0 2 10 17 14 10 8 7 4

Total # of neighbors = 7085776
Ave neighs/atom = 1108.36
Ave special neighs/atom = 1.60582
Neighbor list builds = 0
Dangerous builds = 0
WARNING: Resetting reneighboring criteria during minimization (../min.cpp:168)
PPPM initialization ...
  extracting TIP4P info from pair style
  G vector (1/distance) = 0.2032
  grid = 15 15 30
  stencil order = 5
  estimated absolute RMS force accuracy = 0.0275484
  estimated relative force accuracy = 8.29611e-05
  using double precision FFTs
  3d grid and FFT values/proc = 1200 90
WARNING: Using a manybody potential with bonds/angles/dihedrals and special_bond exclusions (../pair.cpp:220)
Neighbor list info ...
  4 neighbor list requests
  update every 1 steps, delay 0 steps, check yes
  max neighbors/atom: 2000, page size: 100000
  master list distance cutoff = 15.3092
  ghost atom cutoff = 15.3092
  binsize = 7.6546 -> bins = 5 5 12
Memory usage per processor = 8.20188 Mbytes
Step Temp E_pair E_mol TotEng Press 
       0            0    659716.19            0    659716.19    2074150.7 
       7            0    655686.64            0    655686.64    2069603.7 
Loop time of 0.0548775 on 96 procs for 7 steps with 6393 atoms

99.1% CPU use with 96 MPI tasks x no OpenMP threads

Minimization stats:
  Stopping criterion = energy tolerance
  Energy initial, next-to-last, final = 
          659716.19374       655714.61717      655686.635406
  Force two-norm initial, final = 29297.8 247.807
  Force max component initial, final = 19172.5 58.7854
  Final line search alpha, max atom move = 0.00126987 0.0746495
  Iterations, force evaluations = 7 8

MPI task timing breakdown:
Section |  min time  |  avg time  |  max time  |%varavg| %total
---------------------------------------------------------------
Pair    | 0.001651   | 0.01394    | 0.027234   |   5.9 | 25.40
Bond    | 9.5367e-07 | 2.971e-05  | 8.0824e-05 |   0.3 |  0.05
Kspace  | 0.022259   | 0.035895   | 0.048407   |   3.7 | 65.41
Neigh   | 0          | 0          | 0          |   0.0 |  0.00
Comm    | 0.0027063  | 0.0038236  | 0.0044644  |   0.6 |  6.97
Output  | 0          | 0          | 0          |   0.0 |  0.00
Modify  | 1.9073e-06 | 7.4208e-06 | 1.1206e-05 |   0.1 |  0.01
Other   |            | 0.001182   |            |       |  2.15

Nlocal:    66.5938 ave 104 max 32 min
Histogram: 24 0 1 6 11 16 14 10 6 8
Nghost:    4389.48 ave 5928 max 2960 min
Histogram: 24 2 19 3 0 0 4 16 20 8
Neighs:    36905.1 ave 70569 max 4464 min
Histogram: 12 0 12 7 13 16 12 14 6 4
FullNghs:  73810.2 ave 139797 max 22370 min
Histogram: 24 0 2 10 17 14 10 8 7 4

Total # of neighbors = 7085776
Ave neighs/atom = 1108.36
Ave special neighs/atom = 1.60582
Neighbor list builds = 0
Dangerous builds = 0
WARNING: Resetting reneighboring criteria during minimization (../min.cpp:168)
PPPM initialization ...
  extracting TIP4P info from pair style
  G vector (1/distance) = 0.2032
  grid = 15 15 30
  stencil order = 5
  estimated absolute RMS force accuracy = 0.0275484
  estimated relative force accuracy = 8.29611e-05
  using double precision FFTs
  3d grid and FFT values/proc = 1200 90
WARNING: Using a manybody potential with bonds/angles/dihedrals and special_bond exclusions (../pair.cpp:220)
Memory usage per processor = 8.20188 Mbytes
Step Temp E_pair E_mol TotEng Press Volume 
       7            0    655686.64            0    655686.64    2069603.7    98376.225 
      10            0    653267.43            0    653267.43    2061643.6     98429.17 
      20            0    645263.32            0    645263.32    2035334.2    98605.821 
      30            0    637350.82            0    637350.82    2009367.4    98782.735 
      40            0     629528.8            0     629528.8    1983738.5    98959.911 
      50            0    621796.52            0    621796.52      1958444    99137.349 
      60            0    614152.42            0    614152.42    1933477.6    99315.048 
      70            0    606596.07            0    606596.07    1908837.2    99493.007 
      80            0    599126.41            0    599126.41    1884518.1    99671.227 
      90            0     591741.9            0     591741.9    1860514.2    99849.707 
     100            0    584442.01            0    584442.01      1836823    100028.45 
     107            0    579381.56            0    579381.56    1820421.7    100153.72 
Loop time of 0.857 on 96 procs for 100 steps with 6393 atoms

96.6% CPU use with 96 MPI tasks x no OpenMP threads

Minimization stats:
  Stopping criterion = max iterations
  Energy initial, next-to-last, final = 
         655686.635406       580101.94204      579381.559417
  Force two-norm initial, final = 6.32776e+06 5.61097e+06
  Force max component initial, final = 4.95661e+06 4.37271e+06
  Final line search alpha, max atom move = 2.28406e-11 9.98751e-05
  Iterations, force evaluations = 100 100

MPI task timing breakdown:
Section |  min time  |  avg time  |  max time  |%varavg| %total
---------------------------------------------------------------
Pair    | 0.02282    | 0.2245     | 0.45055    |  24.4 | 26.20
Bond    | 1.6212e-05 | 0.0003488  | 0.00063562 |   1.1 |  0.04
Kspace  | 0.32886    | 0.55814    | 0.76291    |  15.7 | 65.13
Neigh   | 0          | 0          | 0          |   0.0 |  0.00
Comm    | 0.030433   | 0.043796   | 0.051751   |   2.1 |  5.11
Output  | 0.00086188 | 0.00091595 | 0.0015826  |   0.2 |  0.11
Modify  | 2.8372e-05 | 4.9902e-05 | 8.0585e-05 |   0.1 |  0.01
Other   |            | 0.02925    |            |       |  3.41

Nlocal:    66.5938 ave 104 max 32 min
Histogram: 24 0 1 6 11 16 14 10 6 8
Nghost:    4389.15 ave 5927 max 2960 min
Histogram: 24 2 19 3 0 0 4 16 20 8
Neighs:    36905 ave 70569 max 4464 min
Histogram: 12 0 12 7 13 16 12 14 6 4
FullNghs:  73810 ave 139797 max 22370 min
Histogram: 24 0 2 10 17 14 10 8 7 4

Total # of neighbors = 7085764
Ave neighs/atom = 1108.36
Ave special neighs/atom = 1.60582
Neighbor list builds = 0
Dangerous builds = 0
  0 = # of size 2 clusters
  0 = # of size 3 clusters
  0 = # of size 4 clusters
  1711 = # of frozen angles
PPPM initialization ...
  extracting TIP4P info from pair style
  G vector (1/distance) = 0.202969
  grid = 15 15 30
  stencil order = 5
  estimated absolute RMS force accuracy = 0.0277393
  estimated relative force accuracy = 8.35361e-05
  using double precision FFTs
  3d grid and FFT values/proc = 1200 90
WARNING: Using a manybody potential with bonds/angles/dihedrals and special_bond exclusions (../pair.cpp:220)
Neighbor list info ...
  4 neighbor list requests
  update every 1 steps, delay 10 steps, check yes
  max neighbors/atom: 2000, page size: 100000
  master list distance cutoff = 15.3092
  ghost atom cutoff = 15.3092
  binsize = 7.6546 -> bins = 5 5 12
Memory usage per processor = 7.95188 Mbytes
Step Temp E_pair E_mol TotEng Press 
     107            0    579381.56            0    579381.56    1491862.9 
    1000    302.39627    577373.01            0     581592.4    1808729.4 
    2000    300.08335    577242.65            0    581429.77    1808733.3 
    3000    307.57847    577448.47            0    581740.16    1808457.2 
    4000    297.21223     577299.3            0    581446.36    1808318.9 
    5000    304.13406    577182.43            0    581426.06    1808339.4 
    6000     299.8371    577208.42            0     581392.1    1808473.6 
    7000    297.64915    577024.76            0    581177.91    1808639.8 
    8000    296.61609    577025.56            0     581164.3    1809043.9 
    9000    301.82945    577020.49            0    581231.97    1808562.6 
   10000    299.69955    576870.67            0    581052.43      1808877 
   11000    301.69738    576927.41            0    581137.05    1808805.6 
   12000    305.42471    577063.29            0    581324.93    1808844.3 
   13000    310.02819    576789.52            0     581115.4    1808809.9 
   14000     297.5023    576946.65            0    581097.75    1808804.3 
   15000    301.75952    577095.78            0    581306.28      1808578 
   16000    303.44261    577053.62            0    581287.61    1808584.6 
   17000    299.28423    577061.12            0    581237.09    1808512.4 
   18000    289.46602    577074.43            0     581113.4    1808717.4 
   19000    291.10746     576959.3            0    581021.17    1808488.7 
   20000    297.30709    577046.25            0    581194.63    1808849.3 
   21000     300.6867       577025            0    581220.53      1808622 
   22000    294.86875    576866.62            0    580980.98    1808931.3 
   23000    299.00679    576802.74            0    580974.83    1809092.4 
   24000    294.56268    576694.44            0    580804.53    1809039.1 
   25000    297.78736    576802.13            0    580957.21    1809006.1 
   26000    307.64566     576626.5            0    580919.13    1809442.1 
   27000    307.90304    576649.32            0    580945.54      1809180 
   28000    301.22077    576673.54            0    580876.53    1809422.7 
   29000    302.70625    576559.23            0    580782.94      1809045 
   30000     309.0447    576802.87            0    581115.03    1809094.6 
   31000    302.09973    576720.02            0    580935.26    1808815.5 
   32000    300.11703    576815.64            0    581003.22    1809085.7 
   33000    304.44156    576787.81            0    581035.73    1808931.8 
   34000    297.54167    577087.68            0    581239.33    1808693.4 
   35000    302.41087    577014.35            0    581233.94      1808494 
   36000    296.22653    576934.71            0    581068.01      1808859 
   37000    300.41873    577132.52            0    581324.31      1808735 
   38000     292.0974     577123.3            0    581198.98    1808752.1 
   39000    304.03314    577114.69            0    581356.92    1808526.1 
   40000    298.61053    577250.48            0    581417.05    1808715.1 
   41000    300.75949    577163.24            0    581359.78    1808558.4 
   42000    308.69212    577184.08            0    581491.31    1808554.4 
   43000    294.94808     577170.4            0    581285.86    1808653.2 
   44000    299.90893     576963.5            0    581148.18    1808672.8 
   45000    298.30387     576992.4            0    581154.69    1808940.9 
   46000    302.57322    577031.17            0    581253.03    1808751.9 
   47000    294.59676       577100            0    581210.56    1808842.7 
   48000    294.06796    576912.87            0    581016.05    1808253.7 
   49000    296.50188    576984.64            0    581121.78    1809044.5 
   50000     300.8864    577000.53            0    581198.85      1808870 
   51000    298.64634    576812.68            0    580979.75    1808587.2 
   52000    299.79765    576864.45            0    581047.58    1808600.7 
   53000    301.37083    576855.11            0    581060.19    1808856.9 
   54000    294.22126    576797.79            0    580903.11    1809056.4 
   55000    304.12454    576866.78            0    581110.28    1809017.7 
   56000    298.49798    576809.94            0    580974.93      1809090 
   57000    301.14009       576785            0    580986.86    1809028.9 
   58000    295.73375    576804.55            0    580930.97    1809228.7 
   59000    301.20278    576845.65            0    581048.39    1809084.8 
   60000    297.91562    576863.37            0    581020.24    1809050.6 
   61000    300.10636    576682.47            0     580869.9    1808914.7 
   62000    294.48461    576728.82            0    580837.81    1809192.9 
   63000    300.09343    576781.41            0    580968.66    1808909.7 
   64000    304.48624    576711.44            0    580959.99      1808902 
   65000    295.45524    576670.97            0    580793.51    1809224.8 
   66000    300.21065    576572.13            0    580761.02    1809199.7 
   67000    304.62473    576678.62            0     580929.1    1809079.3 
   68000    300.40304    576799.59            0    580991.16    1809068.9 
   69000    299.80628    576760.68            0    580943.93    1808616.2 
   70000    299.64226     576855.8            0    581036.76    1809269.1 
   71000    291.95023     576923.5            0    580997.13    1809050.7 
   72000    296.45291    576862.24            0     580998.7    1808897.1 
   73000    299.23559    576939.62            0    581114.91      1808934 
   74000    299.91558    576781.96            0    580966.74    1808752.2 
   75000    305.18582    576845.66            0    581103.97    1808645.5 
   76000    297.90692    576944.63            0    581101.37    1808779.6 
   77000    300.60326    577030.93            0     581225.3    1808887.4 
   78000    298.82718    576956.38            0    581125.96      1808914 
   79000    293.42083    577103.34            0    581197.49    1808773.9 
   80000    298.82634    577241.49            0    581411.06    1808542.9 
   81000    301.24631    577012.86            0     581216.2    1808914.2 
   82000    298.81612     576972.9            0    581142.33    1808551.4 
   83000    296.52048    576989.31            0    581126.71      1808728 
   84000    300.18165    577013.93            0    581202.41    1808595.9 
   85000    303.73591    576928.15            0    581166.23    1808771.6 
   86000    305.77647    576936.15            0     581202.7    1809124.4 
   87000    301.15474    576834.22            0    581036.28    1808715.3 
   88000    306.36682    576776.39            0    581051.18    1809000.3 
   89000     298.6126    576719.34            0    580885.94    1809000.1 
   90000    302.74365    576822.06            0    581046.29    1808876.3 
   91000    292.28779    576691.87            0    580770.21      1808807 
   92000    303.17745    576684.53            0    580914.82    1809138.8 
   93000    304.55756    576763.64            0    581013.19    1808926.9 
   94000    300.26836    576655.86            0    580845.56    1808983.6 
   95000    297.63732    576815.89            0    580968.88      1809047 
   96000    292.80592    576651.34            0    580736.91    1809013.6 
   97000    298.64192    576681.47            0    580848.47    1809053.5 
   98000    303.87889    576744.67            0    580984.75    1808616.4 
   99000    299.13378    576809.26            0    580983.12    1809005.6 
  100000    299.85673       576758            0    580941.95    1809122.2 
  100107    299.43264       576772            0    580950.03    1809030.9 
Loop time of 839.209 on 96 procs for 100000 steps with 6393 atoms

Performance: 5.148 ns/day, 4.662 hours/ns, 119.160 timesteps/s
99.7% CPU use with 96 MPI tasks x no OpenMP threads

MPI task timing breakdown:
Section |  min time  |  avg time  |  max time  |%varavg| %total
---------------------------------------------------------------
Pair    | 0.68643    | 141.91     | 237.14     | 768.4 | 16.91
Bond    | 0.018079   | 0.025909   | 0.040683   |   2.6 |  0.00
Kspace  | 280.87     | 373.71     | 515.63     | 467.7 | 44.53
Neigh   | 248.44     | 248.62     | 248.78     |   0.5 | 29.63
Comm    | 21.806     | 38.503     | 46.563     | 126.7 |  4.59
Output  | 0.22963    | 0.70817    | 1.3703     |  42.7 |  0.08
Modify  | 26.841     | 33.762     | 55.074     | 159.1 |  4.02
Other   |            | 1.965      |            |       |  0.23

Nlocal:    66.5938 ave 112 max 0 min
Histogram: 24 0 0 0 8 4 0 14 26 20
Nghost:    4199.08 ave 6276 max 2064 min
Histogram: 24 0 12 0 12 0 12 0 24 12
Neighs:    41203.4 ave 77169 max 0 min
Histogram: 24 0 0 6 17 1 1 8 28 11
FullNghs:  82406.9 ave 155862 max 0 min
Histogram: 24 0 6 6 0 7 6 13 26 8

Total # of neighbors = 7911062
Ave neighs/atom = 1237.46
Ave special neighs/atom = 1.60582
Neighbor list builds = 3024
Dangerous builds = 0
PPPM initialization ...
  extracting TIP4P info from pair style
  G vector (1/distance) = 0.202969
  grid = 15 15 30
  stencil order = 5
  estimated absolute RMS force accuracy = 0.0277393
  estimated relative force accuracy = 8.35361e-05
  using double precision FFTs
  3d grid and FFT values/proc = 1200 90
WARNING: Using a manybody potential with bonds/angles/dihedrals and special_bond exclusions (../pair.cpp:220)
Equilibration completed.
PPPM initialization ...
  extracting TIP4P info from pair style
  G vector (1/distance) = 0.202969
  grid = 15 15 30
  stencil order = 5
  estimated absolute RMS force accuracy = 0.0277393
  estimated relative force accuracy = 8.35361e-05
  using double precision FFTs
  3d grid and FFT values/proc = 1200 90
WARNING: Using a manybody potential with bonds/angles/dihedrals and special_bond exclusions (../pair.cpp:220)
Memory usage per processor = 7.95188 Mbytes
Step Temp TotEng Volume Press num_feed num_feed num_feed 
  100107    299.43264    580950.03    100153.72    1809030.9         1292           12           12 
  101000    294.97016    580847.64    100153.72    1809245.7         1293           12           12 
  102000    300.62174    580858.81    100153.72      1809097         1293           12           12 
  103000    311.67466    581075.35    100153.72    1809177.5         1293           12           12 
  104000    298.54241    580878.31    100153.72    1808884.9         1292           12           12 
  105000    297.48283    580946.37    100153.72      1809160         1293           12           12 
  106000    304.01539    580894.51    100153.72    1808848.7         1293           12           12 
  107000    304.63856    581005.44    100153.72    1809346.5         1292           12           12 
  108000    293.91767    580819.62    100153.72    1808911.6         1292           12           12 
  109000    303.29339    581069.74    100153.72    1808675.3         1292           12           12 
  110000    299.59554    581054.09    100153.72    1809107.7         1292           12           12 
  111000    296.06275    580984.81    100153.72    1808891.1         1292           12           12 
  112000    301.56961    581162.73    100153.72    1809122.9         1292           12           12 
  113000    306.12933    581231.75    100153.72    1808742.9         1293           12           12 
  114000    303.42066     581220.9    100153.72    1808934.2         1293           12           12 
  115000    299.75115    581084.38    100153.72    1808555.2         1294           12           12 
  116000    300.57795    581048.48    100153.72    1808750.5         1294           12           12 
  117000    300.81301    581105.96    100153.72    1809170.8         1294           12           12 
  118000    298.93011     581033.2    100153.72    1808743.5         1296           12           12 
  119000    302.65748    581160.13    100153.72    1808873.2         1295           12           12 
  120000    298.38685    581049.29    100153.72    1809119.8         1295           12           12 
  121000    299.41182    581006.14    100153.72    1809020.8         1295           12           12 
  122000    297.37464    580973.41    100153.72    1808754.2         1295           12           12 
  123000    299.55524    580984.54    100153.72      1808677         1295           12           12 
  124000    302.29518    580914.87    100153.72      1809357         1295           12           12 
  125000      305.953    581077.44    100153.72    1808701.1         1296           12           12 
  126000    297.99331    580994.12    100153.72    1808946.6         1295           12           12 
  127000    292.30994    580859.57    100153.72      1809118         1295           12           12 
  128000    299.97197    581020.13    100153.72    1808978.8         1294           12           12 
  129000    307.73503    580970.27    100153.72    1808993.4         1294           12           12 
  130000    306.24738    581044.05    100153.72    1808894.6         1295           12           12 
  131000    301.55294    580872.03    100153.72    1809112.7         1296           12           12 
  132000    307.07079    581048.15    100153.72    1809001.9         1296           12           12 
  133000    303.41864    580916.43    100153.72    1809021.3         1295           12           12 
  134000    297.45631    580911.43    100153.72    1808942.2         1295           12           12 
  135000    302.60635    580805.54    100153.72    1809073.6         1295           12           12 
  136000    303.70537    581038.36    100153.72    1808895.3         1295           12           12 
  137000    305.32942    581098.49    100153.72    1809289.2         1296           12           12 
  138000    299.31136    581013.85    100153.72    1808797.6         1294           12           12 
  139000    299.00707    580964.29    100153.72    1808963.8         1294           12           12 
  140000    297.57793    580821.76    100153.72    1809237.2         1295           12           12 
  141000    301.44442    580949.56    100153.72    1809399.4         1295           12           12 
  142000    297.60047    580904.29    100153.72    1809009.7         1295           12           12 
  143000    303.12785    580932.53    100153.72    1809043.9         1295           12           12 
  144000    302.21516    580894.42    100153.72    1809214.4         1295           12           12 
  145000    295.53618    580818.72    100153.72    1809268.3         1296           12           12 
  146000    296.45775    580760.51    100153.72    1809037.7         1295           12           12 
  147000    302.48643    580968.42    100153.72      1809110         1295           12           12 
  148000    298.56209    580974.46    100153.72    1808814.3         1295           12           12 
  149000    300.04721    580976.78    100153.72    1808979.5         1295           12           12 
  150000    290.80198     580872.9    100153.72    1808829.7         1295           12           12 
  151000    305.72949    581243.36    100153.72    1808895.2         1295           12           12 
  152000    299.20558    581121.36    100153.72    1808968.8         1296           12           12 
  153000    298.80322    580949.78    100153.72    1808772.8         1296           12           12 
  154000    297.72769    580968.78    100153.72    1809006.6         1297           12           12 
  155000    304.94196     581059.9    100153.72    1808847.6         1297           12           12 
  156000    297.71845    581120.43    100153.72    1808881.5         1297           12           12 
  157000    290.69444    581008.55    100153.72    1809251.1         1297           12           12 
  158000    297.76147    580924.39    100153.72    1808578.4         1297           12           12 
  159000    295.77991     581030.4    100153.72    1808889.9         1297           12           12 
  160000     299.6228    580950.98    100153.72      1808676         1297           12           12 
  161000    298.45551    581005.09    100153.72    1808998.5         1297           12           12 
  162000    300.02798    580870.55    100153.72    1809196.7         1296           12           12 
  163000    300.75045    581011.01    100153.72    1808998.8         1297           12           12 
  164000    296.77774     580956.8    100153.72    1809014.5         1297           12           12 
  165000    298.78999    580879.46    100153.72    1809306.5         1295           12           12 
  166000    298.93682    580896.22    100153.72    1808928.4         1295           12           12 
  167000    296.36447    580905.84    100153.72    1809056.6         1295           12           12 
  168000    301.11498     581042.6    100153.72    1809091.4         1296           12           12 
  169000     301.7457    581112.16    100153.72    1808950.6         1296           12           12 
  170000     295.9731     580797.2    100153.72    1808752.1         1295           12           12 
  171000    303.78876    580973.99    100153.72    1809226.4         1295           12           12 
  172000    295.11054    580899.75    100153.72    1809203.4         1295           12           12 
  173000    292.19794    580764.86    100153.72      1809046         1297           12           12 
  174000    299.14072    580882.25    100153.72    1809084.5         1297           12           12 
  175000    301.85002    580873.81    100153.72    1809060.4         1297           12           12 
  176000    305.30607    580865.07    100153.72    1809361.5         1297           12           12 
  177000    302.63472    580921.83    100153.72    1809247.7         1297           12           12 
  178000    298.03118    580768.71    100153.72      1808783         1297           12           12 
  179000    298.87852     580866.7    100153.72      1809044         1297           12           12 
  180000    300.28844    580855.75    100153.72    1809256.6         1297           12           12 
  181000     295.6569    580801.54    100153.72      1808901         1297           12           12 
  182000    294.47448    580758.39    100153.72    1809192.6         1297           12           12 
  183000    297.33062    580935.98    100153.72    1809000.5         1296           12           12 
  184000    295.52921    580772.85    100153.72    1809018.3         1297           12           12 
  185000    302.53686    580971.83    100153.72      1808972         1297           12           12 
  186000    302.85964    580980.25    100153.72    1808976.1         1297           12           12 
  187000    297.48618     580913.3    100153.72    1808888.6         1296           12           12 
  188000    297.01919    580888.57    100153.72    1808883.3         1296           12           12 
  189000    295.68657    580943.53    100153.72    1809069.9         1296           12           12 
  190000    293.48708    580925.03    100153.72    1808843.9         1296           12           12 
  191000    297.78034    580960.23    100153.72    1808842.5         1296           12           12 
  192000    295.53476    580817.69    100153.72    1809004.8         1296           12           12 
  193000    304.48173    581031.67    100153.72    1808893.8         1296           12           12 
  194000    301.96133    581052.89    100153.72      1809021         1295           12           12 
  195000    298.28534    581023.78    100153.72    1808937.4         1295           12           12 
  196000    298.66732    580961.83    100153.72    1809102.4         1295           12           12 
  197000    299.01525    581040.95    100153.72    1808487.7         1295           12           12 
  198000    303.02428    581034.78    100153.72      1808803         1295           12           12 
  199000    302.17021    580997.84    100153.72    1809097.5         1296           12           12 
  200000    297.24287    580949.85    100153.72    1808862.5         1296           12           12 
  201000     299.2085    580934.52    100153.72    1808923.2         1295           12           12 
  202000    296.10048    580784.34    100153.72      1808848         1295           12           12 
  203000    294.76557    580964.33    100153.72    1808962.6         1295           12           12 
  204000    293.06191    580824.13    100153.72    1809027.2         1295           12           12 
  205000    302.88647       580927    100153.72    1809066.1         1294           12           12 
  206000     306.9355    581004.14    100153.72    1809216.8         1294           12           12 
  207000    299.62625    581006.18    100153.72    1809308.8         1296           12           12 
  208000    300.47352    580877.62    100153.72      1809289         1296           12           12 
  209000    301.23497    580939.56    100153.72    1808811.2         1295           12           12 
  210000    306.76221    581029.99    100153.72    1808936.7         1295           12           12 
  211000    302.36405    580788.25    100153.72    1808745.4         1296           12           12 
  212000    297.58669    580787.76    100153.72    1808795.8         1296           12           12 
  213000     298.1594    580955.64    100153.72    1808803.6         1296           12           12 
  214000      305.844    581006.06    100153.72    1809134.6         1296           12           12 
  215000    301.80951       580845    100153.72    1809249.7         1295           12           12 
  216000    297.49572    580802.83    100153.72    1809281.5         1296           12           12 
  217000    298.02871    580783.91    100153.72    1809144.6         1296           12           12 
  218000    297.35998    580756.62    100153.72    1808948.6         1296           12           12 
  219000    298.98569    580898.32    100153.72    1809081.1         1297           12           12 
  220000     299.1371    580794.58    100153.72    1808976.8         1298           12           12 
  221000    295.24903    580841.75    100153.72    1808760.2         1299           12           12 
  222000    301.03606    580826.33    100153.72    1808425.8         1297           12           12 
  223000    301.85287    580986.06    100153.72    1809061.7         1297           12           12 
  224000    295.00047    580939.53    100153.72    1809364.4         1297           12           12 
  225000    297.87538    581020.04    100153.72    1808666.3         1297           12           12 
  226000     309.4307    580911.29    100153.72    1808896.9         1297           12           12 
  227000    302.79704    581093.28    100153.72    1808959.1         1297           12           12 
  228000     295.7523    580847.61    100153.72    1809164.4         1297           12           12 
  229000    296.10951    580924.31    100153.72    1809153.4         1297           12           12 
  230000    301.67608    580905.17    100153.72    1809129.4         1297           12           12 
  231000    300.34373    580955.94    100153.72    1808824.2         1296           12           12 
  232000    300.19511    581032.39    100153.72    1809143.5         1297           12           12 
  233000    299.07738    580846.14    100153.72    1808938.3         1296           12           12 
  234000    306.28324    581122.37    100153.72    1808974.9         1296           12           12 
  235000    299.94797    580937.15    100153.72    1808772.4         1297           12           12 
  236000    300.50542    580846.14    100153.72    1808908.1         1296           12           12 
  237000    299.17785    580979.74    100153.72    1808767.9         1296           12           12 
  238000    301.35382    580860.13    100153.72    1808771.1         1297           12           12 
  239000    292.67424    580757.19    100153.72    1809060.2         1297           12           12 
  240000    298.82335    580826.23    100153.72    1808908.4         1297           12           12 
  241000    304.12369    581005.87    100153.72    1809173.7         1297           12           12 
  242000    307.14594    580937.39    100153.72    1808886.6         1296           12           12 
  243000    304.03568    580901.98    100153.72    1809013.1         1295           12           12 
  244000    301.24998    580759.52    100153.72    1808910.8         1295           12           12 
  245000    301.05709    580888.23    100153.72    1809295.2         1294           12           12 
  246000    299.45082    580856.55    100153.72    1809050.6         1296           12           12 
  247000    306.38373    580875.24    100153.72    1809083.1         1295           12           12 
  248000    297.19363    580779.55    100153.72    1809184.6         1295           12           12 
  249000    293.44243     580682.6    100153.72    1809210.8         1296           12           12 
  250000    300.03719    580876.38    100153.72    1809105.4         1296           12           12 
  251000    300.64072    580879.27    100153.72    1808986.4         1296           12           12 
  252000    297.93308    580793.64    100153.72    1808962.8         1296           12           12 
  253000    292.05193    580870.68    100153.72    1808974.4         1295           12           12 
  254000    302.52446     580869.7    100153.72    1809088.1         1296           12           12 
  255000    301.88813    580961.33    100153.72    1808993.5         1295           12           12 
  256000    301.21624    580819.47    100153.72    1808951.1         1295           12           12 
  257000    298.58704    580866.47    100153.72    1808852.8         1296           12           12 
  258000    296.62554    580841.84    100153.72    1809047.8         1296           12           12 
  259000    300.13927    580984.71    100153.72    1808965.6         1295           12           12 
  260000    302.70657    581003.04    100153.72    1809094.7         1296           12           12 
  261000    305.12936    580963.11    100153.72      1809036         1297           12           12 
  262000    298.43536    580826.74    100153.72    1809186.3         1297           12           12 
  263000    299.70868    580821.31    100153.72      1808824         1297           12           12 
  264000    298.51514    580884.16    100153.72      1809134         1298           12           12 
  265000    300.26499    580986.37    100153.72    1809227.5         1298           12           12 
  266000    303.72854    580957.03    100153.72    1809416.2         1297           12           12 
  267000    296.86338    580825.46    100153.72    1809055.3         1298           12           12 
  268000    300.77842    580974.36    100153.72      1809060         1298           12           12 
  269000    300.02827    580861.68    100153.72    1809187.3         1298           12           12 
  270000    297.81464    580951.17    100153.72    1808901.7         1297           12           12 
  271000    300.28689    581026.83    100153.72    1809425.7         1298           12           12 
  272000    303.16935    580902.03    100153.72    1809286.8         1298           12           12 
  273000    303.69133    580976.52    100153.72    1808907.5         1298           12           12 
  274000    290.32842    580780.85    100153.72    1808974.1         1298           12           12 
  275000     298.9363    580975.48    100153.72    1808989.9         1298           12           12 
  276000    297.71079    580809.71    100153.72    1809102.9         1298           12           12 
  277000    296.82108    581017.95    100153.72    1809132.1         1298           12           12 
  278000    307.02759    581154.27    100153.72    1809146.8         1298           12           12 
  279000    300.25044    580947.04    100153.72    1808804.8         1298           12           12 
  280000     306.6718    581022.37    100153.72    1808799.4         1297           12           12 
  281000    300.80713    580864.94    100153.72    1809156.2         1297           12           12 
  282000    293.29699    580792.74    100153.72    1809028.1         1295           12           12 
  283000    300.49766    580936.76    100153.72    1809423.5         1295           12           12 
  284000    296.24786    580806.91    100153.72    1809227.4         1295           12           12 
  285000    302.06109     580893.4    100153.72    1809093.1         1296           12           12 
  286000    305.49016    580923.64    100153.72    1809214.8         1296           12           12 
  287000    307.95283    580925.24    100153.72    1809108.4         1296           12           12 
  288000    298.57247    580828.59    100153.72      1808878         1295           12           12 
  289000    293.05378    580776.42    100153.72    1809161.3         1296           12           12 
  290000    301.18431    580890.15    100153.72      1809237         1296           12           12 
  291000    298.45003    580866.95    100153.72      1808832         1296           12           12 
  292000    301.09573    580858.56    100153.72    1808914.9         1298           12           12 
  293000    304.84484    580951.94    100153.72    1809203.4         1297           12           12 
  294000    303.12617     580939.4    100153.72    1808955.9         1298           12           12 
  295000      303.262    580954.32    100153.72    1808874.9         1298           12           12 
  296000    301.91657    580874.74    100153.72    1808896.2         1297           12           12 
  297000    301.39904    581038.56    100153.72    1809206.4         1297           12           12 
  298000    301.01299    580881.89    100153.72    1809044.4         1296           12           12 
  299000    300.00961    580889.93    100153.72    1808838.3         1296           12           12 
  300000    299.99672    580998.47    100153.72    1808961.5         1296           12           12 
  301000    290.41994    580880.04    100153.72    1808940.3         1296           12           12 
  302000    300.54766    580945.38    100153.72    1809192.5         1298           12           12 
  303000    304.14313    581120.35    100153.72      1808791         1298           12           12 
  304000    299.61661    580931.51    100153.72    1808960.3         1298           12           12 
  305000    300.78433    580901.01    100153.72    1809040.6         1297           12           12 
  306000    303.65537    580888.15    100153.72    1809207.8         1298           12           12 
  307000    293.15138     580922.9    100153.72    1808874.5         1298           12           12 
  308000        296.9    580874.46    100153.72    1808956.4         1299           12           12 
  309000    309.23049    581022.38    100153.72    1809004.2         1299           12           12 
  310000    303.02448    580897.85    100153.72      1809136         1299           12           12 
  311000    302.27583    580914.43    100153.72    1809186.7         1300           12           12 
  312000    306.90868     580745.3    100153.72    1809185.7         1300           12           12 
  313000    299.60438    580719.42    100153.72    1809273.8         1300           12           12 
  314000    298.85771     580980.3    100153.72    1809058.5         1301           12           12 
  315000    295.06866    580726.61    100153.72    1809107.2         1301           12           12 
  316000    302.56878    580914.98    100153.72    1809068.5         1301           12           12 
  317000    299.68344       580854    100153.72    1809061.2         1300           12           12 
  318000    296.83626    580842.07    100153.72    1809049.9         1301           12           12 
  319000     300.5516    580783.42    100153.72    1809193.9         1301           12           12 
  320000    303.55316    580820.55    100153.72    1808890.7         1301           12           12 
  321000    299.89677    580929.32    100153.72      1808920         1302           12           12 
  322000    306.24828    581033.83    100153.72    1808771.7         1302           12           12 
  323000    297.50224    580921.54    100153.72    1808974.6         1301           12           12 
  324000    306.63141    581039.57    100153.72    1809031.9         1302           12           12 
  325000    302.69079    581047.18    100153.72    1809024.9         1302           12           12 
  326000    297.54502    580875.55    100153.72    1808949.1         1302           12           12 
  327000    303.74135    580932.34    100153.72    1808939.8         1303           12           12 
  328000    297.53232    580892.16    100153.72    1808986.8         1304           12           12 
  329000    296.45605    580792.76    100153.72    1808760.8         1303           12           12 
  330000    295.60082    580835.19    100153.72    1809053.3         1302           12           12 
  331000    302.94746    580970.02    100153.72    1808902.5         1302           12           12 
  332000    299.20201    580777.91    100153.72    1809049.2         1302           12           12 
  333000      301.379    580851.03    100153.72    1809154.1         1302           12           12 
  334000    297.59394    580861.38    100153.72    1809158.2         1302           12           12 
  335000    301.13211    580938.05    100153.72    1809292.3         1302           12           12 
  336000    298.69347    580797.09    100153.72    1809265.8         1302           12           12 
  337000    300.40796    580815.46    100153.72    1808841.4         1302           12           12 
  338000    298.44073    580751.31    100153.72    1809280.1         1300           12           12 
  339000    299.50664    580832.74    100153.72    1808743.3         1300           12           12 
  340000    300.83516    580970.32    100153.72    1809033.9         1301           12           12 
  341000    300.75159    580948.72    100153.72    1808837.4         1301           12           12 
  342000    296.95116    580741.32    100153.72    1809136.7         1301           12           12 
  343000    301.50247     580794.3    100153.72    1809271.5         1301           12           12 
  344000    297.60795    580799.24    100153.72    1809358.8         1301           12           12 
  345000    308.70948    580915.27    100153.72    1809026.9         1301           12           12 
  346000    295.51985    580864.45    100153.72    1809057.7         1301           12           12 
  347000    299.47827    580979.82    100153.72    1809529.1         1301           12           12 
  348000    304.47878    580952.64    100153.72    1808949.7         1301           12           12 
  349000    296.93351    580839.04    100153.72    1808959.4         1300           12           12 
  350000    289.78688    580822.69    100153.72    1809067.4         1300           12           12 
  351000    300.61476    580974.84    100153.72    1808844.4         1301           12           12 
  352000    296.39845    580709.58    100153.72    1808903.2         1300           12           12 
  353000    302.72245    580990.44    100153.72    1809050.3         1299           12           12 
  354000    302.06244    580942.13    100153.72    1808886.3         1299           12           12 
  355000     296.4547     580851.6    100153.72    1808975.6         1299           12           12 
  356000    305.07382    581051.24    100153.72    1809071.9         1299           12           12 
  357000    296.08975    580877.61    100153.72    1809035.9         1299           12           12 
  358000    302.48822    580847.55    100153.72    1808691.7         1298           12           12 
  359000    299.45429    580907.37    100153.72    1809003.3         1298           12           12 
  360000    297.73402    580717.26    100153.72    1809034.2         1299           12           12 
  361000    295.24675    580853.43    100153.72    1808860.2         1298           12           12 
  362000    292.04136    580914.06    100153.72    1809073.7         1299           12           12 
  363000     301.0668    580894.16    100153.72    1809334.1         1300           12           12 
  364000    297.37945    580855.69    100153.72      1808982         1299           12           12 
  365000     298.2644    580746.98    100153.72    1808846.2         1300           12           12 
  366000    302.02225    580789.55    100153.72    1809205.1         1299           12           12 
  367000      304.298    580838.31    100153.72    1808811.9         1298           12           12 
  368000    293.97441    580827.13    100153.72    1808785.8         1298           12           12 
  369000    299.85944    580653.32    100153.72    1809073.1         1297           12           12 
  370000    297.33944    581004.34    100153.72    1809188.8         1298           12           12 
  371000    300.52797    580905.17    100153.72    1809052.6         1298           12           12 
  372000    301.88488    580886.01    100153.72    1809028.8         1297           12           12 
  373000    305.62546    580923.29    100153.72    1809253.8         1298           12           12 
  374000    296.69506    580889.81    100153.72    1809110.9         1298           12           12 
  375000     296.0608     580818.6    100153.72    1809075.2         1298           12           12 
  376000    301.23771    581002.66    100153.72    1809389.1         1298           12           12 
  377000    299.24687    580914.36    100153.72    1809039.5         1298           12           12 
  378000    303.56083    580949.53    100153.72    1808987.8         1298           12           12 
  379000    299.15842    580908.63    100153.72      1809325         1298           12           12 
  380000    298.65172    580701.95    100153.72    1809032.9         1298           12           12 
  381000    299.28747    580826.82    100153.72    1809061.7         1298           12           12 
  382000     295.7314    580773.72    100153.72    1808989.2         1298           12           12 
  383000    298.16569    581018.75    100153.72    1809065.5         1298           12           12 
  384000    298.61531    580768.63    100153.72    1808805.4         1298           12           12 
  385000    297.69232    580910.57    100153.72    1808871.5         1300           12           12 
  386000    301.00545    581043.84    100153.72    1808871.7         1300           12           12 
  387000    298.47426    580859.54    100153.72    1809004.6         1299           12           12 
  388000    301.32484     580925.4    100153.72    1809021.4         1299           12           12 
  389000    307.39378    581033.44    100153.72    1809117.6         1300           12           12 
  390000    293.49244    580772.96    100153.72      1809053         1300           12           12 
  391000    304.42257    580808.81    100153.72    1808836.3         1301           12           12 
  392000    299.37268     580905.4    100153.72    1809208.9         1301           12           12 
  393000     299.3972       580926    100153.72    1809220.5         1301           12           12 
  394000    296.29495    580713.23    100153.72    1808941.1         1300           12           12 
  395000    301.24981    580670.66    100153.72    1809148.5         1301           12           12 
  396000    301.06886    580747.64    100153.72      1808848         1302           12           12 
  397000    298.38281    580788.71    100153.72    1809252.1         1302           12           12 
  398000    294.40021    580777.05    100153.72      1809338         1302           12           12 
  399000    300.79623    580882.23    100153.72    1809279.8         1302           12           12 
  400000    302.11167    580793.67    100153.72    1808996.3         1302           12           12 
  401000    300.05279    580758.15    100153.72      1809071         1303           12           12 
  402000    299.20648    580919.21    100153.72    1809189.5         1303           12           12 
  403000     299.9756    580813.19    100153.72    1809488.4         1303           12           12 
  404000    304.62233    580967.86    100153.72    1809178.3         1304           12           12 
  405000     297.9371    580889.22    100153.72    1808980.7         1303           12           12 
  406000    298.78229     580824.7    100153.72    1808805.7         1304           12           12 
  407000    297.86304    580875.39    100153.72      1808909         1303           12           12 
  408000    297.21046    580848.56    100153.72    1808832.6         1304           12           12 
  409000    302.95303    580986.15    100153.72    1808550.6         1303           12           12 
  410000    300.92006     580931.6    100153.72    1808971.9         1304           12           12 
  411000    300.84291    580917.96    100153.72    1809228.9         1305           12           12 
  412000    304.64035    580908.45    100153.72    1808685.4         1305           12           12 
  413000    296.33588    580836.96    100153.72    1809032.9         1305           12           12 
  414000    297.51435    580707.57    100153.72    1809124.1         1305           12           12 
  415000    294.63316    580751.46    100153.72    1809259.6         1305           12           12 
  416000    300.10447    580826.03    100153.72    1809167.6         1305           12           12 
  417000    311.11329    581065.09    100153.72    1809279.2         1305           12           12 
  418000    302.95537    580924.04    100153.72    1809075.9         1306           12           12 
  419000    304.63188    580973.72    100153.72    1809313.3         1306           12           12 
  420000    303.04371    580822.77    100153.72    1809405.5         1306           12           12 
  421000    296.79992    580978.29    100153.72    1809273.7         1307           12           12 
  422000    298.60974    580745.02    100153.72    1809169.5         1306           12           12 
  423000    303.10809    580836.21    100153.72    1809586.3         1306           12           12 
  424000    305.95841    580963.72    100153.72    1809265.2         1306           12           12 
  425000     300.4895    580996.08    100153.72    1808909.6         1306           12           12 
  426000    302.73701    580958.18    100153.72    1808927.8         1307           12           12 
  427000    301.75877    580864.37    100153.72    1808896.1         1305           12           12 
  428000    303.61492    580938.44    100153.72    1808958.2         1305           12           12 
  429000    296.35034    580772.04    100153.72    1809211.6         1306           12           12 
  430000    296.05698    580774.53    100153.72    1809116.1         1305           12           12 
  431000    298.47049    580725.93    100153.72      1809143         1306           12           12 
  432000    303.05596    580864.84    100153.72    1808981.5         1306           12           12 
  433000    299.89833    580864.03    100153.72    1809125.5         1306           12           12 
  434000    300.76263    580826.76    100153.72    1809271.5         1304           12           12 
  435000    297.13873    580711.06    100153.72    1809091.9         1305           12           12 
  436000    293.59298    580651.93    100153.72    1809352.7         1304           12           12 
  437000    299.98821    580835.13    100153.72    1809186.5         1304           12           12 
  438000    298.63498    580876.13    100153.72    1809507.1         1304           12           12 
  439000    300.12493    580886.33    100153.72    1809348.5         1306           12           12 
  440000    301.03408    580945.12    100153.72    1809331.4         1306           12           12 
  441000     297.9849    580908.68    100153.72      1809242         1306           12           12 
  442000    300.16221    580936.42    100153.72    1809038.2         1306           12           12 
  443000    300.47086    580894.22    100153.72    1809116.1         1306           12           12 
  444000    296.54516    580801.04    100153.72    1808887.7         1306           12           12 
  445000    300.95972     580989.3    100153.72    1809485.5         1306           12           12 
  446000    302.19287    580889.01    100153.72    1809037.8         1306           12           12 
  447000    296.80125    580792.79    100153.72    1808853.6         1306           12           12 
  448000     305.6133    580994.27    100153.72      1808841         1305           12           12 
  449000    297.86692    580936.54    100153.72    1809134.8         1306           12           12 
  450000    298.22345    580892.69    100153.72    1809267.9         1306           12           12 
  451000    299.97666    580847.83    100153.72    1809108.5         1306           12           12 
  452000    303.70885    580904.36    100153.72    1809181.3         1306           12           12 
  453000    308.42442    580946.36    100153.72      1809177         1307           12           12 
  454000    303.57205    580938.35    100153.72    1808985.1         1306           12           12 
  455000    300.41796    580812.73    100153.72    1809085.3         1305           12           12 
  456000    292.35625    580723.48    100153.72    1809363.2         1305           12           12 
  457000    304.84703    580883.84    100153.72    1808977.2         1306           12           12 
  458000     300.2272    580792.04    100153.72    1808993.6         1305           12           12 
  459000    296.56802    580751.04    100153.72    1809643.5         1304           12           12 
  460000    303.53564    580800.89    100153.72    1809073.2         1305           12           12 
  461000    299.74428    580859.04    100153.72    1808964.3         1305           12           12 
  462000    299.29631    580838.82    100153.72    1809190.3         1304           12           12 
  463000    295.11874    580780.35    100153.72    1809225.3         1304           12           12 
  464000    292.84546       580857    100153.72    1808865.3         1304           12           12 
  465000    309.03168     580884.8    100153.72    1809397.3         1305           12           12 
  466000    298.85024    580892.63    100153.72    1808801.5         1305           12           12 
  467000    299.04017    580856.85    100153.72    1809023.3         1305           12           12 
  468000    304.97722     580826.5    100153.72      1809168         1305           12           12 
  469000    301.77222    580913.91    100153.72    1809215.6         1305           12           12 
  470000     297.9732    580832.44    100153.72    1808867.1         1306           12           12 
  471000    299.46723    580841.58    100153.72    1809190.7         1307           12           12 
  472000    296.80442     580783.4    100153.72    1808701.7         1307           12           12 
  473000    298.97429    580896.63    100153.72    1809115.8         1306           12           12 
  474000     295.6579     580581.8    100153.72    1809163.8         1306           12           12 
  475000      289.813     580558.7    100153.72    1809374.2         1307           12           12 
  476000    298.99666    580818.25    100153.72    1808916.4         1307           12           12 
  477000     299.4598    580865.42    100153.72    1809171.9         1307           12           12 
  478000    301.44026    580814.73    100153.72    1809002.1         1308           12           12 
  479000    297.65676    580769.33    100153.72      1809255         1307           12           12 
  480000    304.13027    580897.57    100153.72    1808969.2         1307           12           12 
  481000    301.83764    580902.89    100153.72    1809145.8         1306           12           12 
  482000    302.18616    580872.47    100153.72    1809244.2         1307           12           12 
  483000     299.4981    580985.05    100153.72    1808859.6         1307           12           12 
  484000    301.81403       580873    100153.72    1808748.3         1307           12           12 
  485000     298.5132    580797.02    100153.72    1808841.1         1307           12           12 
  486000    298.60511    580830.73    100153.72    1809147.8         1307           12           12 
  487000    297.60539    580774.17    100153.72    1808898.4         1307           12           12 
  488000    295.05891    580748.54    100153.72    1809075.6         1307           12           12 
  489000    295.09706    580877.63    100153.72    1809184.1         1306           12           12 
  490000    296.95395    580880.52    100153.72    1809001.6         1307           12           12 
  491000    291.93536    580802.29    100153.72    1809113.7         1307           12           12 
  492000    299.00276    580812.68    100153.72    1808978.1         1306           12           12 
  493000    301.66456    580937.76    100153.72    1809163.3         1307           12           12 
  494000    295.85595    580872.29    100153.72    1809140.6         1308           12           12 
  495000    300.69061    580924.56    100153.72    1809122.5         1309           12           12 
  496000    295.87865    580808.83    100153.72    1809020.6         1308           12           12 
  497000    300.11525    581099.12    100153.72    1809313.4         1308           12           12 
  498000    306.46403    580886.18    100153.72    1808941.4         1307           12           12 
  499000    301.58805    580831.04    100153.72      1808802         1306           12           12 
  500000    295.69043    580779.38    100153.72    1809048.6         1305           12           12 
  501000    304.82919    580934.84    100153.72    1809237.1         1306           12           12 
  502000    305.43155    580889.39    100153.72    1809070.6         1306           12           12 
  503000    300.49237    580847.15    100153.72    1808996.2         1306           12           12 
  504000    295.43154    580769.98    100153.72    1809216.7         1307           12           12 
  505000    310.53427    581059.21    100153.72    1809129.4         1306           12           12 
  506000    298.11239    580813.57    100153.72    1809165.4         1306           12           12 
  507000    302.02778    580735.02    100153.72    1808987.7         1306           12           12 
  508000    302.19372    580923.67    100153.72    1809218.3         1306           12           12 
  509000    299.16864    580759.98    100153.72    1808834.4         1308           12           12 
  510000    309.51257    580878.58    100153.72    1808886.4         1308           12           12 
  511000    303.70753    580921.85    100153.72    1809003.9         1308           12           12 
  512000    303.42366     580917.6    100153.72    1809102.6         1308           12           12 
  513000    304.13589    580905.14    100153.72    1809285.4         1307           12           12 
  514000    301.12252    580936.85    100153.72    1808889.5         1307           12           12 
  515000    296.31952    580813.85    100153.72    1808656.1         1306           12           12 
  516000    297.90187    580857.28    100153.72    1809339.5         1306           12           12 
  517000    301.77044    580988.06    100153.72    1809167.1         1307           12           12 
  518000    302.46348    580893.51    100153.72      1809158         1307           12           12 
  519000     300.2276    580890.29    100153.72    1809377.9         1307           12           12 
  520000    298.75051    580730.94    100153.72    1808983.6         1306           12           12 
  521000    297.11597    580907.62    100153.72    1809155.5         1307           12           12 
  522000    291.61861    580801.86    100153.72    1808936.6         1306           12           12 
  523000    297.38582    580717.17    100153.72    1808932.5         1306           12           12 
  524000    296.68268    580790.19    100153.72    1809289.6         1307           12           12 
  525000    307.27844    580932.03    100153.72    1809164.6         1307           12           12 
  526000     298.6306    580807.23    100153.72    1809233.5         1307           12           12 
  527000    301.05982    580806.73    100153.72    1808949.8         1307           12           12 
  528000    296.19617    580852.52    100153.72      1809316         1307           12           12 
  529000    297.80459     580706.5    100153.72    1808979.6         1307           12           12 
  530000    303.80683    580821.16    100153.72    1809018.9         1306           12           12 
  531000    299.45279    580763.22    100153.72    1808962.2         1306           12           12 
  532000    301.14318    580946.94    100153.72    1808887.2         1305           12           12 
  533000    301.84257    580920.48    100153.72    1808668.2         1305           12           12 
  534000    300.18123    580950.59    100153.72    1808801.7         1304           12           12 
  535000    300.28658    580816.87    100153.72    1808984.4         1304           12           12 
  536000    302.57249    580918.95    100153.72    1809172.5         1304           12           12 
  537000    294.01225    580734.65    100153.72    1809281.4         1304           12           12 
  538000    296.29853    580854.81    100153.72    1809270.8         1304           12           12 
  539000    299.75295    580881.07    100153.72    1809579.7         1303           12           12 
  540000    295.41979    580733.84    100153.72    1809072.1         1303           12           12 
  541000    298.83875    580689.68    100153.72      1809157         1303           12           12 
  542000    297.22659     580797.4    100153.72    1809395.5         1303           12           12 
  543000    293.27803    580702.42    100153.72    1809084.2         1302           12           12 
  544000    300.01505     580926.9    100153.72    1809352.6         1303           12           12 
  545000    298.92319    580796.07    100153.72    1809117.3         1303           12           12 
  546000    297.20383    580805.34    100153.72    1809045.1         1303           12           12 
  547000    295.15464    580751.66    100153.72    1809134.6         1303           12           12 
  548000    304.44966    580858.85    100153.72    1809018.7         1303           12           12 
  549000    301.84634    580926.24    100153.72    1809204.4         1304           12           12 
  550000    299.62742    580914.59    100153.72    1809299.2         1303           12           12 
  551000    308.11755    580892.86    100153.72    1809251.5         1303           12           12 
  552000    297.13836     580721.4    100153.72    1808881.8         1302           12           12 
  553000    303.43008    580802.68    100153.72    1809170.8         1303           12           12 
  554000    297.37536    580761.03    100153.72    1809030.8         1302           12           12 
  555000    302.07503    580889.28    100153.72    1809187.5         1301           12           12 
  556000    295.22009    580678.74    100153.72      1809347         1301           12           12 
  557000    302.05524    580865.21    100153.72    1809114.9         1301           12           12 
  558000     299.1988    580809.27    100153.72    1809042.3         1301           12           12 
  559000    296.90158    580889.08    100153.72    1809423.2         1302           12           12 
  560000    299.59608    580868.78    100153.72    1809126.3         1302           12           12 
  561000    296.84112     580801.5    100153.72    1808934.5         1303           12           12 
  562000    300.22697    580932.19    100153.72    1809333.5         1304           12           12 
  563000    295.93877    580794.67    100153.72    1808966.4         1303           12           12 
  564000    309.15955    581011.29    100153.72    1808955.2         1304           12           12 
  565000    302.04092    581057.56    100153.72      1809166         1303           12           12 
  566000    300.07829    580822.75    100153.72    1809233.9         1303           12           12 
  567000    303.27855    580979.87    100153.72    1809440.5         1303           12           12 
  568000    302.19783    580854.92    100153.72    1809270.4         1303           12           12 
  569000     307.2964    580939.45    100153.72    1809327.6         1303           12           12 
  570000    303.85089     580988.7    100153.72    1809120.1         1301           12           12 
  571000    307.45732    580941.54    100153.72    1809129.8         1301           12           12 
  572000    290.28545    580708.83    100153.72    1808956.6         1301           12           12 
  573000    303.30925    580876.01    100153.72    1809136.4         1302           12           12 
  574000    306.67927    581002.61    100153.72    1808950.8         1299           12           12 
  575000    301.38118    580801.38    100153.72      1809310         1299           12           12 
  576000    297.77326    580851.61    100153.72    1809129.9         1299           12           12 
  577000    306.62958    580905.11    100153.72      1808859         1299           12           12 
  578000     302.1676    580818.84    100153.72    1809046.2         1299           12           12 
  579000    303.75729    580905.81    100153.72    1809198.2         1299           12           12 
  580000    298.05271    580626.42    100153.72    1809096.8         1300           12           12 
  581000    302.27964    580795.88    100153.72    1809153.9         1299           12           12 
  582000    303.33096    580782.14    100153.72    1809205.3         1300           12           12 
  583000    297.21633    580761.25    100153.72    1809366.2         1299           12           12 
  584000    298.24124    580692.86    100153.72    1809212.4         1299           12           12 
  585000    302.95637     580871.9    100153.72    1809227.4         1299           12           12 
  586000    302.57751    580830.36    100153.72    1809505.4         1300           12           12 
  587000    306.23006    580791.55    100153.72    1809351.8         1300           12           12 
  588000    298.66952    580844.18    100153.72    1809189.3         1299           12           12 
  589000     298.8751    580914.73    100153.72    1809192.5         1300           12           12 
  590000    294.14935    580631.13    100153.72    1808988.2         1300           12           12 
  591000    299.85522    580701.18    100153.72    1809107.9         1301           12           12 
  592000    300.40822    580888.66    100153.72    1809363.6         1301           12           12 
  593000    297.02548    580812.67    100153.72    1809155.5         1300           12           12 
  594000    301.30653    580867.41    100153.72    1809337.5         1300           12           12 
  595000    297.18661    580759.46    100153.72    1809405.4         1300           12           12 
  596000    301.78924    580884.55    100153.72      1809263         1300           12           12 
  597000    306.72936    580855.51    100153.72    1809069.3         1300           12           12 
  598000    293.96784    580808.48    100153.72    1809203.4         1300           12           12 
  599000    299.70415    580883.34    100153.72    1809160.8         1300           12           12 
  600000    304.79061    580999.92    100153.72    1809250.4         1300           12           12 
  601000    296.24252     580711.2    100153.72    1809055.6         1300           12           12 
  602000    304.94309    580798.53    100153.72      1808823         1300           12           12 
  603000    299.48207     580858.8    100153.72    1809369.1         1298           12           12 
  604000    302.84675    580929.39    100153.72      1809094         1299           12           12 
  605000    295.92015    580733.44    100153.72    1809150.8         1299           12           12 
  606000    305.07716    581046.76    100153.72      1809386         1299           12           12 
  607000    300.97259    580896.41    100153.72      1809078         1299           12           12 
  608000    297.75179    580912.37    100153.72    1809090.7         1299           12           12 
  609000    295.29079    580789.62    100153.72    1809060.4         1300           12           12 
  610000     306.9885    580880.79    100153.72    1809006.9         1300           12           12 
  611000    302.81187    580812.71    100153.72    1809101.4         1300           12           12 
  612000    302.92342    580793.41    100153.72    1809188.1         1300           12           12 
  613000    303.54251    580861.49    100153.72    1809216.7         1300           12           12 
  614000    298.13904    580801.84    100153.72    1809308.5         1300           12           12 
  615000    300.78475    580942.37    100153.72    1809353.4         1300           12           12 
  616000    299.88868    580858.75    100153.72    1809433.6         1300           12           12 
  617000    302.15293    580915.84    100153.72    1808797.6         1300           12           12 
  618000     296.2682    580857.17    100153.72    1809236.3         1301           12           12 
  619000    301.01271    580805.91    100153.72      1808947         1300           12           12 
  620000     297.3174    580803.72    100153.72    1809276.9         1300           12           12 
  621000     303.3062    580907.63    100153.72    1809256.8         1300           12           12 
  622000    298.42481    580774.28    100153.72      1809056         1302           12           12 
  623000    296.49645    580671.69    100153.72    1809167.9         1302           12           12 
  624000    302.10089    580948.79    100153.72    1809394.4         1302           12           12 
  625000    297.63369    580826.05    100153.72    1808900.1         1302           12           12 
  626000    301.83342     580783.2    100153.72    1809018.4         1302           12           12 
  627000    291.49583    580708.43    100153.72    1808981.7         1302           12           12 
  628000    304.94779    580923.84    100153.72      1808896         1302           12           12 
  629000    294.08417    580795.45    100153.72    1809120.3         1302           12           12 
  630000    296.58568    580796.86    100153.72    1808986.9         1302           12           12 
  631000    303.38776    580882.39    100153.72    1809315.4         1301           12           12 
  632000    296.21174    580791.69    100153.72    1809248.6         1301           12           12 
  633000    297.93089    580818.12    100153.72    1808945.1         1301           12           12 
  634000    299.50588    580759.63    100153.72    1809071.2         1301           12           12 
  635000    300.29466    580865.37    100153.72    1809411.4         1300           12           12 
  636000     294.2087     580697.6    100153.72    1809054.2         1300           12           12 
  637000    300.19519    580910.32    100153.72    1809087.7         1300           12           12 
  638000    304.23752    581000.27    100153.72    1809102.2         1298           12           12 
  639000    300.36437    580845.44    100153.72    1809163.3         1299           12           12 
  640000    301.10887     580953.8    100153.72    1809087.1         1300           12           12 
  641000    296.35381    580768.61    100153.72      1809045         1299           12           12 
  642000    303.07353    580845.58    100153.72    1808979.5         1300           12           12 
  643000    298.58967    580828.89    100153.72    1808984.3         1300           12           12 
  644000    300.56167    580825.01    100153.72    1808666.6         1300           12           12 
  645000    297.87197    580781.87    100153.72      1809358         1298           12           12 
  646000    300.16281    580849.74    100153.72    1809386.8         1298           12           12 
  647000    304.37473    580892.05    100153.72    1809040.4         1298           12           12 
  648000    297.79831    580877.58    100153.72    1809058.8         1297           12           12 
  649000    304.79091    581063.98    100153.72    1809182.9         1297           12           12 
  650000    305.10698    580948.38    100153.72    1809157.5         1296           12           12 
  651000    295.50627    580814.47    100153.72    1808700.9         1298           12           12 
  652000    299.94266    581014.82    100153.72    1809321.2         1298           12           12 
  653000    299.64766     580755.7    100153.72    1808935.6         1298           12           12 
  654000    300.22636    580722.85    100153.72    1809008.1         1298           12           12 
  655000    303.88874    580943.58    100153.72    1809122.8         1298           12           12 
  656000    299.13335    580697.03    100153.72    1809020.4         1298           12           12 
  657000    298.38776    580767.15    100153.72    1809162.2         1298           12           12 
  658000    296.76097       580728    100153.72    1809144.3         1298           12           12 
  659000    299.28847    580623.02    100153.72    1809039.6         1298           12           12 
  660000    304.25473    580851.52    100153.72    1809405.5         1299           12           12 
  661000    297.37509    580791.72    100153.72    1809081.4         1299           12           12 
  662000    299.40199    580744.46    100153.72    1809383.7         1299           12           12 
  663000    299.76486     580709.6    100153.72    1809387.9         1298           12           12 
  664000    299.81698    580782.29    100153.72    1808977.6         1298           12           12 
  665000    306.33953    580848.91    100153.72    1809286.4         1298           12           12 
  666000    302.29948    580734.49    100153.72    1809153.3         1298           12           12 
  667000    305.40677    580930.44    100153.72    1809072.9         1297           12           12 
  668000    299.31305     580831.3    100153.72      1809098         1297           12           12 
  669000    298.93878    580949.71    100153.72    1809170.5         1297           12           12 
  670000    298.26924    580744.68    100153.72    1809110.6         1298           12           12 
  671000    301.60897    580845.28    100153.72    1808947.7         1299           12           12 
  672000    300.46858    580927.24    100153.72    1809155.1         1299           12           12 
  673000    300.74513    580916.24    100153.72    1808980.4         1299           12           12 
  674000    299.94993    580793.03    100153.72    1809267.4         1299           12           12 
  675000    300.42878     580933.6    100153.72    1808717.2         1299           12           12 
  676000    303.30813    580932.13    100153.72    1808942.1         1299           12           12 
  677000    300.01657       580925    100153.72    1809545.3         1299           12           12 
  678000    302.00965    580979.36    100153.72      1808910         1299           12           12 
  679000    299.36352    580843.47    100153.72    1808847.8         1299           12           12 
  680000    295.27605    580702.37    100153.72    1809013.7         1298           12           12 
  681000    295.35353    580783.96    100153.72    1809069.8         1299           12           12 
  682000    304.29693    580864.28    100153.72    1809218.1         1299           12           12 
  683000    303.42478    580882.96    100153.72    1809022.3         1299           12           12 
  684000    294.65244    580705.67    100153.72    1809174.8         1299           12           12 
  685000    298.59586    580842.35    100153.72    1809210.1         1298           12           12 
  686000    300.73157    580856.36    100153.72    1809042.1         1298           12           12 
  687000    304.45228    580996.14    100153.72    1809337.9         1298           12           12 
  688000    298.21763    580946.81    100153.72    1809370.9         1298           12           12 
  689000     297.9231    580880.13    100153.72    1809072.7         1298           12           12 
  690000    303.74863    580857.27    100153.72    1809039.8         1298           12           12 
  691000    291.49449    580896.07    100153.72    1809067.4         1298           12           12 
  692000    302.32545     580829.9    100153.72      1809232         1298           12           12 
[...]
18917000    300.60103    580869.46    100153.72    1808852.9          987           12           12 
18918000    299.73781    580835.78    100153.72    1809282.9          987           12           12 
18919000    301.73877    580846.03    100153.72    1808982.1          986           12           12 
18920000     295.2423    580680.07    100153.72    1809514.1          986           12           12 
18921000     296.0344    580817.39    100153.72    1808887.7          986           12           12 
18922000    301.70315    580857.79    100153.72    1809060.2          986           12           12 
18923000    298.67506     580833.9    100153.72    1809085.5          986           12           12 
18924000    303.77388    580850.58    100153.72    1808983.6          987           12           12 
18925000     299.6585    580872.25    100153.72    1809155.4          986           12           12 
18926000    301.90172    581039.28    100153.72    1808933.8          986           12           12 
18927000    301.63524    580988.61    100153.72    1809092.8          986           12           12 
18928000    299.11387    580987.32    100153.72    1809005.5          987           12           12 
18929000    297.72127    580960.35    100153.72    1809158.4          987           12           12 
18930000    301.48651     580981.9    100153.72    1809126.8          987           12           12 
18931000    299.62137    580941.19    100153.72    1809068.8          988           12           12 
18932000    302.01923    581053.07    100153.72    1809280.1          987           12           12 
18933000    301.50448     581027.1    100153.72    1809320.6          987           12           12 
18934000    298.21446    580912.59    100153.72    1809188.9          987           12           12 
18935000    302.29544    580946.92    100153.72      1809032          985           12           12 
18936000    308.99806    581018.42    100153.72    1808990.8          985           12           12 
18937000    295.07354    580845.69    100153.72    1808731.8          984           12           12 
18938000    294.50818     580784.4    100153.72    1808889.6          984           12           12 
18939000    299.47126    580926.83    100153.72    1808991.4          985           12           12 
18940000    295.48166    580879.16    100153.72    1808938.1          985           12           12 
18941000    300.85602    580996.82    100153.72      1808951          985           12           12 
18942000    299.35131    580932.12    100153.72    1808842.3          985           12           12 
18943000    295.44969    580822.29    100153.72      1808918          985           12           12 
18944000    302.33915    580862.64    100153.72    1808640.2          985           12           12 
18945000    293.45346    580795.29    100153.72    1809092.5          984           12           12 
18946000    301.16221    580918.48    100153.72    1809174.5          983           12           12 
18947000      300.893    580900.97    100153.72    1809056.7          985           12           12 
18948000    298.42399    580815.67    100153.72    1809058.5          984           12           12 
18949000    298.77656    580804.06    100153.72    1808952.8          984           12           12 
18950000     303.7238    580769.07    100153.72    1809110.6          984           12           12 
18951000     294.6805    580696.72    100153.72    1808996.8          985           12           12 
18952000    304.51334     580877.3    100153.72    1809030.7          986           12           12 
18953000    299.40931    580806.91    100153.72    1809206.5          984           12           12 
18954000    299.36993    580872.67    100153.72    1809018.4          986           12           12 
18955000    296.50153    580825.24    100153.72    1809028.7          985           12           12 
18956000    301.64104    580946.28    100153.72    1808909.2          985           12           12 
18957000    300.29653    581015.99    100153.72    1809238.2          984           12           12 
18958000    301.14165    580885.91    100153.72    1808774.4          984           12           12 
18959000    300.84336    581066.18    100153.72    1809048.2          984           12           12 
18960000    298.82907     581002.6    100153.72    1808942.3          984           12           12 
18961000    294.34848    580856.89    100153.72      1808737          984           12           12 
18962000    303.62336    580916.64    100153.72      1808912          984           12           12 
18963000     304.0935    580922.25    100153.72    1808806.6          983           12           12 
18964000    298.26118    580997.97    100153.72    1809146.3          983           12           12 
18965000    301.33279    580942.06    100153.72    1808849.9          982           12           12 
18966000    297.53238    580929.65    100153.72    1808881.1          984           12           12 
18967000    299.61969    580888.64    100153.72    1809080.4          983           12           12 
18968000    302.29257     581011.6    100153.72      1809103          983           12           12 
18969000    293.44678     580828.6    100153.72    1808829.5          982           12           12 
18970000    299.36735    580759.11    100153.72    1808907.6          982           12           12 
18971000    297.24224    580860.47    100153.72    1808949.5          982           12           12 
18972000    296.71525    580917.07    100153.72    1808895.3          983           12           12 
18973000    295.67782    580831.88    100153.72    1809024.5          984           12           12 
18974000      297.156    580737.34    100153.72    1809187.8          984           12           12 
18975000    296.82466    580769.33    100153.72    1808959.8          983           12           12 
18976000    305.47805    580932.14    100153.72    1809078.3          984           12           12 
18977000    298.87093    580820.91    100153.72    1809136.2          983           12           12 
18978000    294.53562    580815.97    100153.72    1808810.8          983           12           12 
18979000    298.15115    580866.51    100153.72    1808973.1          982           12           12 
18980000    297.30492    580909.71    100153.72    1809148.9          983           12           12 
18981000    298.73453    580796.49    100153.72    1809120.4          982           12           12 
18982000    297.80087    580727.45    100153.72    1808693.4          982           12           12 
18983000    304.23923    580824.17    100153.72      1808759          983           12           12 
18984000    302.23462    581032.91    100153.72    1809230.7          983           12           12 
18985000    299.97062    580970.57    100153.72    1809143.1          983           12           12 
18986000    298.94821    580840.91    100153.72    1809184.8          983           12           12 
18987000     300.1928    580824.88    100153.72    1808921.4          983           12           12 
18988000    294.95877     580872.8    100153.72    1809147.8          983           12           12 
18989000    295.43284       580759    100153.72      1808900          983           12           12 
18990000    297.69325    580840.45    100153.72    1809102.4          984           12           12 
18991000    304.47349       580989    100153.72    1809050.1          984           12           12 
18992000    296.01585    580759.15    100153.72    1808757.3          985           12           12 
18993000    296.67398    580853.64    100153.72    1809043.7          984           12           12 
18994000    303.69658    580965.62    100153.72    1809364.7          984           12           12 
18995000    302.62492    580953.73    100153.72    1809135.3          985           12           12 
18996000    293.61595    580834.87    100153.72    1809220.3          985           12           12 
18997000    296.99077     580914.5    100153.72    1808945.7          984           12           12 
18998000     303.2987    580842.75    100153.72    1809155.5          984           12           12 
18999000    299.71444    580978.32    100153.72    1809272.6          984           12           12 
19000000    295.53367    580826.43    100153.72    1808829.2          984           12           12 
19001000    298.46607    580884.57    100153.72    1809247.9          984           12           12 
19002000     299.4233    580878.96    100153.72    1809172.2          984           12           12 
19003000    288.23425    580736.96    100153.72    1808738.5          985           12           12 
19004000    301.75102    580936.22    100153.72    1808982.3          985           12           12 
19005000    300.97044    581060.88    100153.72    1809150.7          985           12           12 
19006000    304.72059     580995.2    100153.72    1808728.5          986           12           12 
19007000    303.96493    580929.08    100153.72    1809489.9          986           12           12 
19008000    305.02957    581057.55    100153.72    1808930.2          986           12           12 
19009000    297.85257    580800.87    100153.72    1809139.5          985           12           12 
19010000    300.68106    580854.94    100153.72      1808925          985           12           12 
19011000    298.04683    580863.01    100153.72      1809035          985           12           12 
19012000    302.65211    580868.26    100153.72    1809055.6          985           12           12 
19013000    296.47594    580770.91    100153.72    1808780.5          985           12           12 
19014000    305.15332     580952.7    100153.72    1809170.3          985           12           12 
19015000    297.05653    580769.63    100153.72    1808934.9          986           12           12 
19016000    304.23579    580900.82    100153.72    1808871.2          986           12           12 
19017000     303.9215    580842.51    100153.72    1808976.3          985           12           12 
19018000    295.75473    580781.38    100153.72    1808877.6          985           12           12 
19019000    302.81404    580881.48    100153.72    1809185.6          985           12           12 
19020000    296.86274     580907.1    100153.72    1809119.4          984           12           12 
19021000    304.12333    580732.12    100153.72    1808965.1          984           12           12 
19022000    291.97667    580824.92    100153.72    1809332.1          985           12           12 
19023000    303.68523    580959.69    100153.72    1809254.4          984           12           12 
19024000    298.82738    580916.43    100153.72    1808897.1          984           12           12 
19025000    296.57734     580772.3    100153.72      1808993          984           12           12 
19026000    303.91368    580973.59    100153.72    1809004.5          984           12           12 
19027000    301.61727       581064    100153.72    1808796.4          984           12           12 
19028000    303.83935    581145.44    100153.72    1808971.4          983           12           12 
19029000    302.89235    580993.92    100153.72    1808721.5          984           12           12 
19030000    303.58206    581098.37    100153.72    1808774.9          985           12           12 
19031000    296.41046    580982.52    100153.72    1808870.8          984           12           12 
19032000    299.58623    580894.94    100153.72    1808719.6          983           12           12 
19033000     300.1263    581026.91    100153.72    1808962.6          983           12           12 
19034000    303.36956    581025.35    100153.72    1809003.5          984           12           12 
19035000    303.31899    580895.33    100153.72    1809029.1          984           12           12 
19036000    303.69713    580923.31    100153.72    1809198.3          983           12           12 
19037000    299.10972    580855.61    100153.72    1809032.1          983           12           12 
19038000    299.98059     580846.3    100153.72    1808846.5          983           12           12 
19039000    299.22589    580852.52    100153.72    1809091.2          983           12           12 
19040000    302.68495    580812.42    100153.72    1809223.1          983           12           12 
19041000    297.22123    580917.12    100153.72    1809008.9          983           12           12 
19042000    308.68574    581018.07    100153.72    1809037.9          983           12           12 
19043000    298.69365     580852.4    100153.72    1809338.1          982           12           12 
19044000    297.75262    580805.17    100153.72    1809085.7          982           12           12 
19045000    298.24668    580817.92    100153.72    1809355.8          982           12           12 
19046000    297.48892    580749.79    100153.72    1809065.6          982           12           12 
19047000    302.04496    580766.79    100153.72      1809024          982           12           12 
19048000    301.99429    580873.56    100153.72    1808839.5          982           12           12 
19049000     299.0719    580870.72    100153.72    1809106.5          984           12           12 
19050000    302.10114    580794.36    100153.72    1809089.2          983           12           12 
19051000    296.67278    580955.42    100153.72    1808936.3          983           12           12 
19052000    301.90027    580838.46    100153.72    1809199.6          983           12           12 
19053000    291.08284    580693.73    100153.72      1809082          984           12           12 
19054000    302.10145    580857.23    100153.72    1809026.4          983           12           12 
19055000    300.54193    580995.98    100153.72    1808922.5          983           12           12 
19056000    298.60882    580967.34    100153.72    1808711.9          983           12           12 
19057000     300.4379    580921.03    100153.72      1809152          982           12           12 
19058000    302.28357    581050.45    100153.72    1809116.5          983           12           12 
19059000    301.97021    581057.16    100153.72    1809045.3          982           12           12 
19060000    298.68047    580896.67    100153.72    1808843.9          982           12           12 
19061000    293.03889     580672.7    100153.72    1808919.4          982           12           12 
19062000    293.46155    580932.69    100153.72    1809067.5          982           12           12 
19063000    295.15142    580819.29    100153.72    1809222.3          984           12           12 
19064000    299.64702    580851.29    100153.72    1808858.6          984           12           12 
19065000    301.93301    580896.37    100153.72    1808897.5          984           12           12 
19066000    310.45335    581021.97    100153.72    1809674.9          984           12           12 
19067000    295.18897    580886.49    100153.72    1809243.6          984           12           12 
19068000    302.44296    580967.32    100153.72    1809269.5          984           12           12 
19069000    299.72336    581000.61    100153.72    1809099.2          984           12           12 
19070000    299.04969    580853.78    100153.72    1808926.2          984           12           12 
19071000    299.80849    580984.09    100153.72    1809157.8          984           12           12 
19072000    302.06095    580925.14    100153.72    1809147.6          984           12           12 
19073000    299.00488    580838.71    100153.72    1808825.7          985           12           12 
19074000    296.46617    580823.66    100153.72    1808726.5          985           12           12 
19075000    297.20174    580893.76    100153.72    1809304.3          984           12           12 
19076000    306.44142    580899.29    100153.72    1808827.2          984           12           12 
19077000    301.65607    580920.04    100153.72    1809185.6          985           12           12 
19078000    306.37391    580924.62    100153.72    1808837.4          985           12           12 
19079000    304.30605    580902.49    100153.72    1809099.5          985           12           12 
19080000    293.36651    580823.39    100153.72    1809370.7          985           12           12 
19081000    295.31861    580884.29    100153.72    1808978.3          985           12           12 
19082000    297.62445    580927.45    100153.72    1808974.6          985           12           12 
19083000    296.00919    580874.04    100153.72    1809004.1          985           12           12 
19084000    303.42406    580977.73    100153.72    1808914.1          986           12           12 
19085000    300.91584     580902.4    100153.72    1808970.3          986           12           12 
19086000    298.87804    580881.44    100153.72    1808904.4          987           12           12 
19087000    302.38375    581057.79    100153.72    1808894.3          986           12           12 
19088000    304.79451    580985.73    100153.72    1809019.7          986           12           12 
19089000    300.77489    580813.03    100153.72    1808838.3          986           12           12 
19090000     300.3776    580808.04    100153.72      1808847          986           12           12 
19091000    297.08712    580874.77    100153.72    1809109.9          986           12           12 
19092000    305.97715    580969.65    100153.72      1808969          986           12           12 
19093000    305.55786    580979.21    100153.72    1809001.5          986           12           12 
19094000    302.57658    580928.51    100153.72    1808703.7          986           12           12 
19095000    299.72444    580848.93    100153.72    1808780.1          986           12           12 
19096000    306.76297    580922.16    100153.72    1808878.4          987           12           12 
19097000     297.3583    580745.12    100153.72    1809011.6          986           12           12 
19098000    299.49561    580768.72    100153.72    1809263.3          987           12           12 
19099000    301.92438    580907.46    100153.72    1809190.7          987           12           12 
19100000    302.85144    580871.26    100153.72    1809113.8          987           12           12 
19100107    305.88999     580872.4    100153.72    1809142.8          987           12           12 
Loop time of 161164 on 96 procs for 19000000 steps with 6393 atoms

Performance: 5.093 ns/day, 4.712 hours/ns, 117.892 timesteps/s
99.7% CPU use with 96 MPI tasks x no OpenMP threads

MPI task timing breakdown:
Section |  min time  |  avg time  |  max time  |%varavg| %total
---------------------------------------------------------------
Pair    | 60.971     | 27481      | 48566      |10918.2 | 17.05
Bond    | 3.2959     | 4.8254     | 6.8193     |  33.8 |  0.00
Kspace  | 53541      | 74169      | 1.0192e+05 |6578.3 | 46.02
Neigh   | 45204      | 45233      | 45263      |   6.7 | 28.07
Comm    | 3456.7     | 7649.3     | 9256.8     |1761.9 |  4.75
Output  | 32.167     | 32.197     | 33.881     |   3.0 |  0.02
Modify  | 4767.9     | 6317.9     | 11661      |2194.7 |  3.92
Other   |            | 276.8      |            |       |  0.17

Nlocal:    66.5938 ave 106 max 0 min
Histogram: 24 0 0 0 0 2 7 17 19 27
Nghost:    4347.96 ave 6178 max 2422 min
Histogram: 24 0 17 7 0 0 0 19 5 24
Neighs:    40630.1 ave 73806 max 0 min
Histogram: 24 0 7 5 1 2 6 15 18 18
FullNghs:  81260.2 ave 146986 max 0 min
Histogram: 24 0 0 2 12 10 2 7 20 19

Total # of neighbors = 7800976
Ave neighs/atom = 1220.24
Ave special neighs/atom = 1.60582
Neighbor list builds = 545804
Dangerous builds = 0
Total wall time: 45:00:05
